# vtk DataFile Version 3.0
Immiscible displacement
ASCII
DATASET RECTILINEAR_GRID
DIMENSIONS 400 100 1
X_COORDINATES 400 double
1 2 3 4 5 6 7 8 9 10 11 12 13 14 15 16 17 18 19 20 21 22 23 24 25 26 27 28 29 30 31 32 33 34 35 36 37 38 39 40 41 42 43 44 45 46 47 48 49 50 51 52 53 54 55 56 57 58 59 60 61 62 63 64 65 66 67 68 69 70 71 72 73 74 75 76 77 78 79 80 81 82 83 84 85 86 87 88 89 90 91 92 93 94 95 96 97 98 99 100 101 102 103 104 105 106 107 108 109 110 111 112 113 114 115 116 117 118 119 120 121 122 123 124 125 126 127 128 129 130 131 132 133 134 135 136 137 138 139 140 141 142 143 144 145 146 147 148 149 150 151 152 153 154 155 156 157 158 159 160 161 162 163 164 165 166 167 168 169 170 171 172 173 174 175 176 177 178 179 180 181 182 183 184 185 186 187 188 189 190 191 192 193 194 195 196 197 198 199 200 201 202 203 204 205 206 207 208 209 210 211 212 213 214 215 216 217 218 219 220 221 222 223 224 225 226 227 228 229 230 231 232 233 234 235 236 237 238 239 240 241 242 243 244 245 246 247 248 249 250 251 252 253 254 255 256 257 258 259 260 261 262 263 264 265 266 267 268 269 270 271 272 273 274 275 276 277 278 279 280 281 282 283 284 285 286 287 288 289 290 291 292 293 294 295 296 297 298 299 300 301 302 303 304 305 306 307 308 309 310 311 312 313 314 315 316 317 318 319 320 321 322 323 324 325 326 327 328 329 330 331 332 333 334 335 336 337 338 339 340 341 342 343 344 345 346 347 348 349 350 351 352 353 354 355 356 357 358 359 360 361 362 363 364 365 366 367 368 369 370 371 372 373 374 375 376 377 378 379 380 381 382 383 384 385 386 387 388 389 390 391 392 393 394 395 396 397 398 399 400 
Y_COORDINATES 100 double
1 2 3 4 5 6 7 8 9 10 11 12 13 14 15 16 17 18 19 20 21 22 23 24 25 26 27 28 29 30 31 32 33 34 35 36 37 38 39 40 41 42 43 44 45 46 47 48 49 50 51 52 53 54 55 56 57 58 59 60 61 62 63 64 65 66 67 68 69 70 71 72 73 74 75 76 77 78 79 80 81 82 83 84 85 86 87 88 89 90 91 92 93 94 95 96 97 98 99 100 
Z_COORDINATES 1 double
0
POINT_DATA 40000
SCALARS rho double 1
LOOKUP_TABLE default
0.478399 0.478488 0.478618 0.478767 0.478922 0.479077 0.479227 0.479369 0.479504 0.47963 0.479747 0.479854 0.479953 0.480043 0.480124 0.480197 0.480262 0.48032 0.48037 0.480412 0.480448 0.480476 0.480498 0.480512 0.480521 0.480522 0.480517 0.480505 0.480487 0.480463 0.480432 0.480394 0.48035 0.480299 0.480242 0.480178 0.480108 0.480031 0.479947 0.479856 0.479759 0.479655 0.479545 0.479427 0.479303 0.479172 0.479035 0.478891 0.47874 0.478583 0.47842 0.478251 0.478075 0.477893 0.477706 0.477513 0.477314 0.47711 0.476902 0.476688 0.47647 0.476247 0.476021 0.47579 0.475557 0.47532 0.47508 0.474838 0.474594 0.474348 0.474102 0.473854 0.473606 0.473357 0.473109 0.472862 0.472616 0.472372 0.472129 0.47189 0.471653 0.471419 0.471189 0.470964 0.470743 0.470526 0.470315 0.47011 0.46991 0.469717 0.46953 0.46935 0.469177 0.469011 0.468852 0.468701 0.468558 0.468422 0.468294 0.468174 0.468061 0.467957 0.46786 0.467771 0.467689 0.467615 0.467547 0.467487 0.467434 0.467387 0.467346 0.467312 0.467283 0.46726 0.467242 0.46723 0.467222 0.467219 0.467221 0.467227 0.467237 0.467253 0.467273 0.467299 0.467331 0.46737 0.467417 0.467475 0.467545 0.467633 0.467742 0.467878 0.468051 0.46827 0.468552 0.468915 0.469385 0.469999 0.470801 0.471853 0.473237 0.475064 0.477477 0.480672 0.484909 0.490533 0.498005 0.507939 0.521143 0.538684 0.561939 0.592663 0.633004 0.685435 0.752492 0.836186 0.936995 1.0526 1.17697 1.30081 1.4139 1.50844 1.58121 1.63344 1.66897 1.69226 1.70715 1.71654 1.72243 1.72612 1.72844 1.7299 1.73083 1.73143 1.73181 1.73207 1.73225 1.73237 1.73246 1.73253 1.73259 1.73263 1.73267 1.73271 1.73274 1.73277 1.73279 1.73282 1.73284 1.73286 1.73288 1.7329 1.73291 1.73293 1.73294 1.73295 1.73295 1.73296 1.73296 1.73296 1.73296 1.73296 1.73295 1.73295 1.73294 1.73293 1.73291 1.7329 1.73288 1.73286 1.73284 1.73282 1.73279 1.73277 1.73274 1.73271 1.73267 1.73263 1.73259 1.73253 1.73246 1.73237 1.73225 1.73207 1.73181 1.73143 1.73083 1.7299 1.72844 1.72612 1.72243 1.71654 1.70715 1.69225 1.66897 1.63344 1.58121 1.50844 1.4139 1.3008 1.17696 1.0526 0.93699 0.836181 0.752487 0.68543 0.632999 0.592658 0.561934 0.538678 0.521137 0.507933 0.497998 0.490526 0.484901 0.480663 0.477467 0.475053 0.473226 0.471841 0.470787 0.469984 0.469369 0.468897 0.468533 0.46825 0.468028 0.467854 0.467715 0.467605 0.467515 0.467442 0.467381 0.467331 0.467289 0.467254 0.467225 0.467202 0.467183 0.467168 0.467158 0.467153 0.467151 0.467155 0.467163 0.467176 0.467194 0.467217 0.467246 0.467281 0.467323 0.46737 0.467425 0.467486 0.467554 0.46763 0.467713 0.467803 0.467902 0.468007 0.468121 0.468243 0.468372 0.468509 0.468654 0.468806 0.468966 0.469133 0.469307 0.469488 0.469675 0.469869 0.47007 0.470275 0.470487 0.470703 0.470924 0.47115 0.47138 0.471613 0.471849 0.472089 0.47233 0.472574 0.472819 0.473065 0.473313 0.47356 0.473807 0.474054 0.474299 0.474544 0.474787 0.475027 0.475265 0.475501 0.475733 0.475962 0.476187 0.476408 0.476624 0.476836 0.477044 0.477245 0.477442 0.477633 0.477819 0.477998 0.478172 0.478339 0.4785 0.478654 0.478802 0.478943 0.479078 0.479205 0.479326 0.47944 0.479548 0.479648 0.479742 0.479828 0.479908 0.479981 0.480047 0.480106 0.480159 0.480205 0.480244 0.480276 0.480302 0.480321 0.480334 0.48034 0.48034 0.480333 0.48032 0.4803 0.480273 0.480239 0.480199 0.480151 0.480096 0.480034 0.479964 0.479887 0.479801 0.479707 0.479605 0.479494 0.479374 0.479245 0.479107 0.478962 0.47881 0.478654 0.478497 0.478347 0.478216 0.478126 0.468856 0.468925 0.469037 0.46917 0.469313 0.469457 0.469598 0.469733 0.469861 0.469981 0.470093 0.470195 0.47029 0.470376 0.470454 0.470524 0.470587 0.470642 0.47069 0.47073 0.470764 0.470791 0.470812 0.470825 0.470833 0.470834 0.470829 0.470817 0.470799 0.470775 0.470744 0.470707 0.470664 0.470614 0.470559 0.470496 0.470427 0.470352 0.47027 0.470182 0.470087 0.469986 0.469878 0.469764 0.469643 0.469516 0.469382 0.469242 0.469096 0.468943 0.468784 0.468619 0.468449 0.468272 0.46809 0.467902 0.46771 0.467511 0.467309 0.467101 0.466889 0.466672 0.466452 0.466228 0.466001 0.465771 0.465539 0.465303 0.465066 0.464827 0.464588 0.464347 0.464106 0.463864 0.463624 0.463383 0.463144 0.462907 0.462672 0.462438 0.462209 0.461981 0.461758 0.461539 0.461324 0.461114 0.460909 0.460709 0.460515 0.460327 0.460146 0.459971 0.459803 0.459641 0.459487 0.45934 0.459201 0.459069 0.458945 0.458828 0.458718 0.458617 0.458522 0.458435 0.458356 0.458283 0.458218 0.458159 0.458107 0.458061 0.458022 0.457988 0.45796 0.457937 0.45792 0.457907 0.457899 0.457896 0.457897 0.457903 0.457913 0.457928 0.457947 0.457972 0.458003 0.45804 0.458086 0.458142 0.45821 0.458295 0.4584 0.458532 0.458699 0.458911 0.459183 0.459534 0.459988 0.46058 0.461353 0.462367 0.463701 0.465459 0.467781 0.470854 0.474926 0.48033 0.487503 0.497034 0.509692 0.526495 0.548753 0.578138 0.616692 0.666781 0.730851 0.810903 0.90757 1.01895 1.13965 1.26108 1.37346 1.46885 1.54347 1.5979 1.63548 1.66041 1.67654 1.68681 1.6933 1.69739 1.69997 1.70161 1.70265 1.70332 1.70376 1.70406 1.70425 1.70439 1.70449 1.70457 1.70463 1.70468 1.70472 1.70476 1.70479 1.70482 1.70485 1.70487 1.70489 1.70492 1.70493 1.70495 1.70497 1.70498 1.70499 1.705 1.70501 1.70501 1.70502 1.70502 1.70502 1.70501 1.70501 1.705 1.70499 1.70498 1.70497 1.70495 1.70493 1.70492 1.70489 1.70487 1.70485 1.70482 1.70479 1.70476 1.70472 1.70468 1.70463 1.70457 1.70449 1.70439 1.70425 1.70406 1.70376 1.70332 1.70265 1.70161 1.69997 1.69739 1.6933 1.68681 1.67654 1.66041 1.63547 1.5979 1.54347 1.46884 1.37346 1.26108 1.13964 1.01894 0.907566 0.810898 0.730846 0.666777 0.616687 0.578133 0.548748 0.526489 0.509686 0.497027 0.487496 0.480322 0.474918 0.470846 0.467771 0.465449 0.463689 0.462355 0.46134 0.460565 0.459972 0.459517 0.459164 0.458891 0.458677 0.458509 0.458374 0.458267 0.45818 0.458109 0.458051 0.458003 0.457962 0.457928 0.4579 0.457878 0.45786 0.457846 0.457836 0.457831 0.45783 0.457833 0.457841 0.457854 0.457872 0.457895 0.457924 0.457958 0.457998 0.458045 0.458098 0.458158 0.458224 0.458298 0.458379 0.458467 0.458562 0.458665 0.458776 0.458894 0.45902 0.459153 0.459294 0.459442 0.459597 0.459759 0.459929 0.460104 0.460287 0.460475 0.46067 0.46087 0.461075 0.461285 0.4615 0.461719 0.461943 0.462169 0.462399 0.462631 0.462866 0.463103 0.463341 0.463581 0.463821 0.464061 0.464301 0.464541 0.46478 0.465017 0.465253 0.465487 0.465718 0.465947 0.466173 0.466395 0.466614 0.466828 0.467039 0.467245 0.467446 0.467642 0.467834 0.468019 0.4682 0.468374 0.468543 0.468705 0.468862 0.469012 0.469156 0.469293 0.469424 0.469548 0.469666 0.469777 0.469882 0.469979 0.47007 0.470155 0.470233 0.470304 0.470368 0.470426 0.470478 0.470522 0.470561 0.470593 0.470619 0.470638 0.470651 0.470657 0.470657 0.470651 0.470638 0.470619 0.470594 0.470561 0.470523 0.470477 0.470424 0.470365 0.470298 0.470223 0.470141 0.470051 0.469953 0.469846 0.469732 0.469609 0.469478 0.469341 0.469198 0.469052 0.468908 0.468773 0.468661 0.468591 0.461698 0.46175 0.461841 0.461955 0.46208 0.462209 0.462338 0.462463 0.462581 0.462693 0.462798 0.462895 0.462984 0.463066 0.463139 0.463206 0.463265 0.463317 0.463362 0.4634 0.463432 0.463457 0.463476 0.463489 0.463495 0.463495 0.463489 0.463477 0.463459 0.463435 0.463404 0.463368 0.463325 0.463276 0.463222 0.46316 0.463093 0.463019 0.46294 0.462853 0.462761 0.462662 0.462557 0.462445 0.462328 0.462204 0.462074 0.461937 0.461795 0.461647 0.461493 0.461332 0.461166 0.460995 0.460818 0.460635 0.460448 0.460255 0.460058 0.459856 0.459651 0.45944 0.459227 0.459009 0.458789 0.458565 0.45834 0.458111 0.457881 0.457649 0.457416 0.457182 0.456948 0.456714 0.45648 0.456247 0.456015 0.455784 0.455556 0.45533 0.455106 0.454886 0.454669 0.454456 0.454248 0.454043 0.453845 0.453651 0.453462 0.45328 0.453104 0.452933 0.45277 0.452613 0.452464 0.452321 0.452185 0.452057 0.451936 0.451822 0.451716 0.451617 0.451525 0.45144 0.451363 0.451292 0.451228 0.451171 0.45112 0.451075 0.451036 0.451003 0.450975 0.450952 0.450935 0.450922 0.450914 0.450911 0.450911 0.450916 0.450926 0.450939 0.450958 0.450981 0.451011 0.451047 0.451091 0.451144 0.45121 0.451292 0.451393 0.45152 0.45168 0.451883 0.452144 0.45248 0.452915 0.453481 0.45422 0.455188 0.45646 0.458135 0.460346 0.463269 0.467137 0.472265 0.479065 0.488087 0.500056 0.515919 0.536903 0.564568 0.600824 0.647898 0.708136 0.783555 0.875052 0.981333 1.09797 1.21738 1.33032 1.42863 1.5076 1.56671 1.60849 1.6368 1.65542 1.66746 1.67516 1.68007 1.68319 1.68519 1.68647 1.6873 1.68784 1.6882 1.68844 1.68861 1.68874 1.68883 1.6889 1.68895 1.689 1.68904 1.68907 1.68911 1.68913 1.68916 1.68918 1.68921 1.68923 1.68925 1.68926 1.68927 1.68929 1.6893 1.6893 1.68931 1.68931 1.68931 1.68931 1.68931 1.6893 1.6893 1.68929 1.68927 1.68926 1.68925 1.68923 1.68921 1.68918 1.68916 1.68913 1.68911 1.68907 1.68904 1.689 1.68895 1.6889 1.68883 1.68874 1.68861 1.68844 1.6882 1.68784 1.6873 1.68647 1.68519 1.68319 1.68007 1.67516 1.66746 1.65542 1.6368 1.60849 1.56671 1.5076 1.42863 1.33032 1.21738 1.09797 0.981329 0.875047 0.783551 0.708131 0.647894 0.600819 0.564563 0.536898 0.515914 0.50005 0.488081 0.479058 0.472258 0.467129 0.46326 0.460336 0.458125 0.456449 0.455176 0.454207 0.453467 0.452899 0.452463 0.452126 0.451863 0.451658 0.451496 0.451367 0.451264 0.45118 0.451112 0.451056 0.451009 0.450971 0.450938 0.450912 0.45089 0.450873 0.45086 0.450851 0.450847 0.450846 0.45085 0.450858 0.450871 0.450889 0.450912 0.45094 0.450974 0.451013 0.451059 0.451111 0.451169 0.451234 0.451306 0.451384 0.45147 0.451563 0.451664 0.451771 0.451886 0.452008 0.452138 0.452275 0.452418 0.452569 0.452727 0.452891 0.453062 0.453239 0.453422 0.453611 0.453805 0.454005 0.454209 0.454418 0.454631 0.454848 0.455067 0.455291 0.455516 0.455745 0.455974 0.456206 0.456438 0.456671 0.456904 0.457138 0.45737 0.457602 0.457833 0.458062 0.458289 0.458514 0.458736 0.458955 0.459171 0.459384 0.459592 0.459797 0.459996 0.460192 0.460383 0.460569 0.460749 0.460924 0.461094 0.461258 0.461415 0.461568 0.461714 0.461854 0.461987 0.462115 0.462236 0.46235 0.462459 0.462561 0.462656 0.462745 0.462827 0.462903 0.462973 0.463036 0.463093 0.463143 0.463187 0.463226 0.463257 0.463283 0.463302 0.463316 0.463322 0.463324 0.463318 0.463307 0.463289 0.463266 0.463235 0.463199 0.463155 0.463106 0.463049 0.462986 0.462915 0.462837 0.462752 0.462659 0.462559 0.462451 0.462336 0.462215 0.462088 0.461957 0.461826 0.461699 0.461585 0.461493 0.46144 0.456335 0.456375 0.456447 0.456541 0.456648 0.456761 0.456876 0.456988 0.457097 0.4572 0.457296 0.457386 0.457469 0.457545 0.457614 0.457676 0.457731 0.45778 0.457822 0.457857 0.457887 0.45791 0.457927 0.457938 0.457943 0.457942 0.457935 0.457922 0.457903 0.457878 0.457848 0.457811 0.457769 0.457721 0.457667 0.457606 0.45754 0.457468 0.45739 0.457305 0.457215 0.457118 0.457016 0.456907 0.456792 0.456671 0.456545 0.456412 0.456273 0.456128 0.455978 0.455822 0.455661 0.455494 0.455322 0.455144 0.454962 0.454775 0.454584 0.454387 0.454187 0.453983 0.453776 0.453564 0.45335 0.453133 0.452913 0.452691 0.452468 0.452242 0.452016 0.451789 0.451562 0.451334 0.451107 0.45088 0.450655 0.450431 0.450209 0.449989 0.449772 0.449558 0.449347 0.44914 0.448937 0.448739 0.448546 0.448357 0.448174 0.447997 0.447825 0.44766 0.447501 0.447349 0.447203 0.447064 0.446932 0.446807 0.446689 0.446578 0.446475 0.446378 0.446289 0.446206 0.44613 0.446061 0.445998 0.445942 0.445892 0.445848 0.445809 0.445776 0.445749 0.445726 0.445708 0.445695 0.445687 0.445683 0.445683 0.445687 0.445695 0.445708 0.445725 0.445747 0.445775 0.445809 0.445851 0.445903 0.445965 0.446043 0.44614 0.446261 0.446414 0.446608 0.446857 0.447176 0.44759 0.448127 0.448827 0.449744 0.450947 0.452529 0.454614 0.457367 0.461005 0.465821 0.472196 0.480641 0.491823 0.506616 0.526148 0.551852 0.585491 0.629137 0.68502 0.755176 0.840786 0.941242 1.0532 1.17026 1.28395 1.38595 1.47053 1.53585 1.58334 1.61633 1.63849 1.65307 1.66252 1.66862 1.67254 1.67507 1.6767 1.67776 1.67846 1.67893 1.67924 1.67946 1.67961 1.67972 1.6798 1.67987 1.67992 1.67997 1.68001 1.68004 1.68007 1.6801 1.68013 1.68015 1.68017 1.68019 1.68021 1.68022 1.68023 1.68024 1.68025 1.68026 1.68026 1.68026 1.68026 1.68026 1.68025 1.68024 1.68023 1.68022 1.68021 1.68019 1.68017 1.68015 1.68013 1.6801 1.68007 1.68004 1.68001 1.67997 1.67992 1.67987 1.6798 1.67972 1.67961 1.67946 1.67924 1.67893 1.67846 1.67776 1.6767 1.67507 1.67254 1.66862 1.66252 1.65307 1.63849 1.61633 1.58334 1.53584 1.47053 1.38594 1.28395 1.17026 1.0532 0.941238 0.840782 0.755172 0.685016 0.629132 0.585486 0.551847 0.526143 0.506611 0.491817 0.480635 0.472189 0.465813 0.460997 0.457358 0.454604 0.452519 0.450936 0.449732 0.448814 0.448113 0.447574 0.44716 0.446838 0.446588 0.446392 0.446238 0.446115 0.446016 0.445936 0.445871 0.445817 0.445772 0.445735 0.445705 0.445679 0.445659 0.445643 0.445631 0.445623 0.445619 0.445619 0.445624 0.445632 0.445646 0.445664 0.445686 0.445714 0.445748 0.445787 0.445832 0.445883 0.44594 0.446003 0.446073 0.44615 0.446234 0.446325 0.446423 0.446528 0.446639 0.446759 0.446885 0.447018 0.447158 0.447304 0.447458 0.447618 0.447784 0.447956 0.448134 0.448317 0.448506 0.4487 0.448899 0.449102 0.449308 0.449519 0.449733 0.44995 0.450169 0.450391 0.450614 0.450839 0.451065 0.451292 0.451518 0.451745 0.451971 0.452197 0.45242 0.452643 0.452864 0.453082 0.453298 0.453511 0.453721 0.453927 0.45413 0.454329 0.454523 0.454714 0.454899 0.45508 0.455255 0.455425 0.45559 0.45575 0.455903 0.456052 0.456194 0.45633 0.45646 0.456585 0.456702 0.456814 0.45692 0.45702 0.457113 0.4572 0.45728 0.457355 0.457423 0.457486 0.457541 0.457592 0.457635 0.457673 0.457705 0.457731 0.457751 0.457765 0.457772 0.457775 0.457771 0.457761 0.457745 0.457723 0.457695 0.457662 0.457621 0.457575 0.457522 0.457462 0.457396 0.457323 0.457243 0.457157 0.457064 0.456964 0.456858 0.456748 0.456633 0.456516 0.456401 0.456293 0.456198 0.456125 0.456085 0.452323 0.452354 0.452411 0.452488 0.452577 0.452674 0.452775 0.452874 0.452971 0.453065 0.453153 0.453235 0.453311 0.453381 0.453445 0.453502 0.453553 0.453598 0.453637 0.453669 0.453696 0.453716 0.453731 0.45374 0.453744 0.453741 0.453733 0.453719 0.4537 0.453674 0.453644 0.453607 0.453565 0.453517 0.453463 0.453403 0.453338 0.453267 0.45319 0.453107 0.453018 0.452924 0.452823 0.452717 0.452605 0.452486 0.452363 0.452233 0.452098 0.451957 0.45181 0.451658 0.451501 0.451338 0.451171 0.450998 0.45082 0.450638 0.450452 0.450261 0.450066 0.449867 0.449665 0.449459 0.449251 0.449039 0.448826 0.44861 0.448392 0.448173 0.447953 0.447732 0.447511 0.447289 0.447068 0.446847 0.446628 0.44641 0.446194 0.44598 0.445769 0.44556 0.445356 0.445154 0.444957 0.444764 0.444575 0.444392 0.444214 0.444041 0.443874 0.443713 0.443558 0.443409 0.443267 0.443132 0.443003 0.442881 0.442766 0.442658 0.442557 0.442462 0.442375 0.442294 0.442219 0.442151 0.44209 0.442034 0.441985 0.441941 0.441903 0.44187 0.441842 0.44182 0.441802 0.441788 0.441779 0.441774 0.441773 0.441776 0.441784 0.441795 0.441811 0.441832 0.441858 0.44189 0.44193 0.441978 0.442038 0.442112 0.442204 0.442319 0.442464 0.442649 0.442884 0.443186 0.443576 0.444083 0.444742 0.445604 0.446732 0.448215 0.450165 0.452735 0.456127 0.460607 0.466528 0.474354 0.484693 0.498343 0.516325 0.539941 0.570799 0.610805 0.662062 0.726599 0.805851 0.899864 1.00639 1.12032 1.23416 1.33971 1.43035 1.50278 1.55715 1.59597 1.62266 1.64054 1.65233 1.66003 1.66504 1.66829 1.67041 1.67179 1.67271 1.67332 1.67373 1.67401 1.67421 1.67435 1.67445 1.67454 1.6746 1.67465 1.6747 1.67474 1.67477 1.6748 1.67482 1.67485 1.67487 1.67489 1.67491 1.67492 1.67493 1.67494 1.67495 1.67496 1.67496 1.67496 1.67496 1.67496 1.67495 1.67494 1.67493 1.67492 1.67491 1.67489 1.67487 1.67485 1.67482 1.6748 1.67477 1.67474 1.6747 1.67465 1.6746 1.67454 1.67445 1.67435 1.67421 1.67401 1.67373 1.67332 1.67271 1.67179 1.67041 1.66829 1.66504 1.66003 1.65233 1.64054 1.62266 1.59597 1.55715 1.50278 1.43035 1.33971 1.23416 1.12032 1.00638 0.89986 0.805847 0.726595 0.662057 0.610801 0.570794 0.539936 0.51632 0.498337 0.484688 0.474347 0.466521 0.4606 0.456119 0.452727 0.450156 0.448205 0.446721 0.445592 0.444729 0.444069 0.443561 0.443169 0.442865 0.442629 0.442443 0.442296 0.442179 0.442085 0.442009 0.441947 0.441895 0.441853 0.441818 0.441789 0.441765 0.441746 0.441732 0.441721 0.441714 0.441711 0.441712 0.441717 0.441726 0.44174 0.441758 0.441781 0.441809 0.441842 0.441881 0.441925 0.441975 0.442032 0.442094 0.442163 0.442238 0.44232 0.442409 0.442505 0.442607 0.442716 0.442833 0.442955 0.443085 0.443222 0.443365 0.443514 0.44367 0.443832 0.444 0.444173 0.444352 0.444535 0.444724 0.444918 0.445115 0.445317 0.445522 0.44573 0.445941 0.446154 0.44637 0.446588 0.446807 0.447026 0.447247 0.447467 0.447688 0.447908 0.448128 0.448346 0.448562 0.448777 0.44899 0.4492 0.449407 0.449611 0.449812 0.45001 0.450203 0.450392 0.450578 0.450758 0.450934 0.451105 0.451271 0.451432 0.451587 0.451737 0.451882 0.45202 0.452153 0.45228 0.452402 0.452517 0.452626 0.45273 0.452827 0.452918 0.453004 0.453083 0.453157 0.453224 0.453285 0.453341 0.45339 0.453434 0.453472 0.453504 0.45353 0.453551 0.453566 0.453575 0.453578 0.453576 0.453568 0.453554 0.453535 0.453509 0.453478 0.453441 0.453398 0.453349 0.453294 0.453233 0.453165 0.453091 0.453012 0.452926 0.452835 0.452739 0.45264 0.452538 0.452436 0.452337 0.452246 0.452168 0.45211 0.452079 0.449326 0.44935 0.449395 0.449458 0.449532 0.449614 0.449701 0.449788 0.449874 0.449957 0.450036 0.450111 0.45018 0.450244 0.450302 0.450354 0.450401 0.450441 0.450477 0.450506 0.45053 0.450547 0.45056 0.450567 0.450568 0.450564 0.450555 0.45054 0.450519 0.450493 0.450462 0.450425 0.450383 0.450334 0.450281 0.450222 0.450157 0.450087 0.450011 0.449929 0.449842 0.449749 0.449651 0.449546 0.449436 0.44932 0.449199 0.449072 0.44894 0.448802 0.448659 0.448511 0.448357 0.448198 0.448035 0.447866 0.447693 0.447515 0.447334 0.447147 0.446957 0.446763 0.446566 0.446366 0.446163 0.445957 0.445748 0.445538 0.445326 0.445112 0.444898 0.444682 0.444466 0.44425 0.444035 0.44382 0.443606 0.443393 0.443183 0.442974 0.442768 0.442565 0.442365 0.442169 0.441976 0.441788 0.441604 0.441425 0.441251 0.441082 0.44092 0.440762 0.440611 0.440466 0.440327 0.440195 0.440069 0.43995 0.439837 0.439731 0.439632 0.439539 0.439453 0.439374 0.4393 0.439233 0.439173 0.439118 0.439069 0.439025 0.438987 0.438954 0.438926 0.438903 0.438885 0.43887 0.43886 0.438855 0.438853 0.438855 0.438861 0.438871 0.438885 0.438905 0.438929 0.438959 0.438996 0.439042 0.439099 0.439169 0.439256 0.439365 0.439502 0.439675 0.439897 0.440181 0.440547 0.441022 0.441638 0.442443 0.443494 0.444873 0.446683 0.449065 0.452201 0.456335 0.461786 0.468974 0.478449 0.490926 0.507325 0.528815 0.556845 0.593155 0.639702 0.69848 0.771108 0.858196 0.958503 1.06826 1.18115 1.28941 1.38585 1.46581 1.52792 1.57362 1.60585 1.62791 1.6427 1.65249 1.65892 1.66315 1.66591 1.66774 1.66895 1.66976 1.6703 1.67067 1.67093 1.67112 1.67125 1.67135 1.67143 1.67149 1.67154 1.67159 1.67162 1.67166 1.67168 1.67171 1.67173 1.67175 1.67177 1.67179 1.6718 1.67181 1.67182 1.67182 1.67183 1.67183 1.67183 1.67182 1.67182 1.67181 1.6718 1.67179 1.67177 1.67175 1.67173 1.67171 1.67168 1.67166 1.67162 1.67159 1.67154 1.67149 1.67143 1.67135 1.67125 1.67112 1.67093 1.67067 1.6703 1.66976 1.66895 1.66774 1.66591 1.66315 1.65892 1.65249 1.6427 1.62791 1.60585 1.57361 1.52791 1.4658 1.38585 1.2894 1.18114 1.06826 0.958499 0.858192 0.771104 0.698476 0.639698 0.593151 0.556841 0.52881 0.50732 0.490921 0.478444 0.468968 0.461779 0.456328 0.452193 0.449057 0.446674 0.444863 0.443483 0.442431 0.441625 0.441007 0.440532 0.440164 0.439878 0.439655 0.43948 0.439341 0.43923 0.439141 0.439069 0.43901 0.438962 0.438922 0.438889 0.438862 0.43884 0.438822 0.438809 0.438799 0.438794 0.438792 0.438794 0.4388 0.43881 0.438824 0.438842 0.438866 0.438894 0.438927 0.438965 0.439009 0.439059 0.439115 0.439176 0.439244 0.439318 0.439399 0.439486 0.439579 0.43968 0.439787 0.4399 0.440021 0.440148 0.440281 0.440421 0.440567 0.440719 0.440877 0.441041 0.44121 0.441384 0.441564 0.441748 0.441936 0.442129 0.442326 0.442526 0.442729 0.442935 0.443143 0.443353 0.443565 0.443779 0.443993 0.444208 0.444423 0.444639 0.444853 0.445067 0.445279 0.445491 0.4457 0.445908 0.446112 0.446315 0.446514 0.44671 0.446902 0.447091 0.447275 0.447456 0.447632 0.447804 0.44797 0.448133 0.448289 0.448441 0.448588 0.448729 0.448864 0.448994 0.449119 0.449238 0.44935 0.449458 0.449559 0.449655 0.449744 0.449829 0.449907 0.449979 0.450046 0.450107 0.450162 0.450211 0.450255 0.450293 0.450326 0.450353 0.450374 0.45039 0.4504 0.450405 0.450405 0.450399 0.450387 0.45037 0.450348 0.45032 0.450286 0.450247 0.450201 0.450151 0.450095 0.450033 0.449965 0.449893 0.449815 0.449733 0.449647 0.449559 0.449469 0.449381 0.449297 0.449221 0.449158 0.449112 0.449088 0.447092 0.447111 0.447146 0.447197 0.447258 0.447327 0.447401 0.447476 0.447552 0.447625 0.447695 0.447762 0.447824 0.447882 0.447934 0.447981 0.448023 0.44806 0.448091 0.448117 0.448138 0.448153 0.448163 0.448168 0.448167 0.448161 0.44815 0.448134 0.448113 0.448085 0.448054 0.448016 0.447973 0.447925 0.447872 0.447813 0.447749 0.447679 0.447604 0.447523 0.447437 0.447346 0.447249 0.447146 0.447038 0.446925 0.446806 0.446681 0.446552 0.446417 0.446277 0.446131 0.445981 0.445826 0.445666 0.445501 0.445332 0.445158 0.444981 0.444799 0.444613 0.444424 0.444231 0.444035 0.443837 0.443636 0.443432 0.443227 0.44302 0.442811 0.442601 0.442391 0.44218 0.441969 0.441759 0.441548 0.44134 0.441132 0.440926 0.440722 0.440521 0.440323 0.440127 0.439935 0.439747 0.439563 0.439383 0.439208 0.439038 0.438873 0.438714 0.43856 0.438412 0.43827 0.438134 0.438004 0.437881 0.437764 0.437653 0.437549 0.437452 0.437361 0.437276 0.437197 0.437125 0.437059 0.436999 0.436944 0.436895 0.436852 0.436814 0.43678 0.436752 0.436728 0.436709 0.436694 0.436683 0.436676 0.436674 0.436674 0.436679 0.436688 0.436701 0.436718 0.43674 0.436768 0.436803 0.436846 0.436899 0.436965 0.437047 0.437149 0.437278 0.437441 0.437648 0.437914 0.438256 0.438698 0.439271 0.440017 0.44099 0.442264 0.443933 0.446124 0.449003 0.452789 0.457768 0.464319 0.472931 0.484243 0.499073 0.518464 0.543709 0.576379 0.618277 0.67132 0.737239 0.81708 0.910477 1.01492 1.12543 1.23504 1.33641 1.42374 1.49412 1.54764 1.58647 1.61367 1.63225 1.64473 1.65304 1.65855 1.66219 1.66461 1.66621 1.66729 1.66802 1.66852 1.66886 1.66911 1.66928 1.66941 1.66951 1.66959 1.66965 1.6697 1.66974 1.66977 1.6698 1.66983 1.66986 1.66988 1.6699 1.66991 1.66992 1.66994 1.66994 1.66995 1.66995 1.66995 1.66995 1.66995 1.66994 1.66994 1.66992 1.66991 1.6699 1.66988 1.66986 1.66983 1.6698 1.66977 1.66974 1.6697 1.66965 1.66959 1.66951 1.66941 1.66928 1.66911 1.66886 1.66852 1.66802 1.66729 1.66621 1.66461 1.66219 1.65855 1.65304 1.64473 1.63225 1.61367 1.58647 1.54764 1.49412 1.42374 1.33641 1.23503 1.12542 1.01492 0.910473 0.817076 0.737235 0.671316 0.618273 0.576375 0.543705 0.518459 0.499068 0.484238 0.472925 0.464313 0.457761 0.452781 0.448995 0.446116 0.443924 0.442254 0.440979 0.440005 0.439257 0.438683 0.43824 0.437897 0.43763 0.437421 0.437256 0.437126 0.437021 0.436938 0.43687 0.436814 0.436769 0.436731 0.4367 0.436675 0.436655 0.436639 0.436627 0.436619 0.436614 0.436614 0.436616 0.436623 0.436634 0.436649 0.436668 0.436692 0.43672 0.436754 0.436792 0.436836 0.436886 0.436941 0.437002 0.437068 0.437142 0.437221 0.437307 0.437399 0.437497 0.437602 0.437714 0.437832 0.437956 0.438087 0.438224 0.438367 0.438516 0.43867 0.438831 0.438996 0.439167 0.439342 0.439522 0.439707 0.439895 0.440087 0.440283 0.440481 0.440682 0.440886 0.441092 0.441299 0.441507 0.441717 0.441927 0.442137 0.442347 0.442557 0.442766 0.442973 0.44318 0.443384 0.443587 0.443787 0.443985 0.444179 0.444371 0.444558 0.444743 0.444923 0.4451 0.445272 0.44544 0.445603 0.445761 0.445914 0.446063 0.446206 0.446344 0.446477 0.446605 0.446726 0.446843 0.446954 0.447059 0.447159 0.447253 0.447341 0.447424 0.447501 0.447573 0.447639 0.4477 0.447755 0.447804 0.447848 0.447887 0.44792 0.447948 0.44797 0.447987 0.447999 0.448006 0.448007 0.448003 0.447994 0.44798 0.44796 0.447935 0.447905 0.447869 0.447828 0.447783 0.447731 0.447675 0.447614 0.447549 0.447479 0.447406 0.44733 0.447252 0.447175 0.447099 0.447028 0.446966 0.446914 0.446877 0.446859 0.44543 0.445444 0.445473 0.445513 0.445564 0.445622 0.445684 0.445748 0.445813 0.445877 0.445939 0.445998 0.446054 0.446105 0.446152 0.446194 0.446231 0.446263 0.446291 0.446313 0.446331 0.446343 0.446351 0.446353 0.446351 0.446343 0.44633 0.446312 0.44629 0.446262 0.446229 0.446191 0.446148 0.446099 0.446046 0.445987 0.445923 0.445854 0.44578 0.4457 0.445615 0.445524 0.445429 0.445328 0.445222 0.44511 0.444993 0.444871 0.444744 0.444611 0.444474 0.444332 0.444185 0.444032 0.443876 0.443714 0.443549 0.443379 0.443205 0.443027 0.442845 0.44266 0.442471 0.44228 0.442086 0.441889 0.44169 0.441489 0.441286 0.441082 0.440877 0.440671 0.440465 0.440258 0.440052 0.439846 0.439642 0.439439 0.439237 0.439038 0.438841 0.438646 0.438455 0.438267 0.438083 0.437902 0.437727 0.437555 0.437388 0.437226 0.43707 0.436919 0.436774 0.436634 0.436501 0.436374 0.436252 0.436137 0.436029 0.435926 0.43583 0.43574 0.435656 0.435578 0.435507 0.435441 0.435381 0.435327 0.435278 0.435234 0.435196 0.435162 0.435133 0.435109 0.435089 0.435073 0.435061 0.435053 0.435049 0.435049 0.435052 0.435059 0.43507 0.435086 0.435106 0.435132 0.435164 0.435204 0.435254 0.435316 0.435392 0.435488 0.435608 0.43576 0.435953 0.4362 0.436517 0.436926 0.437456 0.438144 0.439039 0.440209 0.441738 0.44374 0.446364 0.449807 0.454324 0.460251 0.468023 0.478203 0.491516 0.50888 0.531446 0.560614 0.598027 0.645491 0.704772 0.777219 0.863169 0.961246 1.06781 1.17704 1.28189 1.37586 1.45459 1.51666 1.56312 1.59652 1.61983 1.63576 1.64651 1.65371 1.65852 1.66173 1.66388 1.66533 1.66631 1.66698 1.66745 1.66778 1.66801 1.66818 1.6683 1.6684 1.66848 1.66854 1.66858 1.66863 1.66866 1.66869 1.66872 1.66874 1.66876 1.66878 1.66879 1.6688 1.66881 1.66882 1.66882 1.66882 1.66882 1.66882 1.66881 1.6688 1.66879 1.66878 1.66876 1.66874 1.66872 1.66869 1.66866 1.66863 1.66858 1.66854 1.66848 1.6684 1.6683 1.66818 1.66801 1.66778 1.66745 1.66698 1.66631 1.66533 1.66388 1.66173 1.65852 1.65371 1.64651 1.63576 1.61983 1.59652 1.56312 1.51666 1.45459 1.37586 1.28189 1.17704 1.06781 0.961243 0.863165 0.777215 0.704768 0.645487 0.598023 0.56061 0.531441 0.508876 0.491511 0.478198 0.468017 0.460245 0.454318 0.4498 0.446356 0.443731 0.441728 0.440198 0.439028 0.438131 0.437442 0.436912 0.436501 0.436183 0.435934 0.435739 0.435586 0.435464 0.435366 0.435288 0.435224 0.435172 0.435129 0.435095 0.435066 0.435043 0.435024 0.43501 0.434999 0.434993 0.43499 0.43499 0.434994 0.435002 0.435014 0.43503 0.435049 0.435074 0.435103 0.435136 0.435175 0.435219 0.435268 0.435323 0.435384 0.43545 0.435522 0.435601 0.435685 0.435776 0.435873 0.435977 0.436087 0.436202 0.436325 0.436453 0.436587 0.436728 0.436874 0.437025 0.437183 0.437345 0.437512 0.437684 0.437861 0.438041 0.438226 0.438414 0.438606 0.4388 0.438997 0.439196 0.439398 0.4396 0.439805 0.44001 0.440215 0.440421 0.440627 0.440832 0.441036 0.44124 0.441442 0.441642 0.44184 0.442036 0.442229 0.442419 0.442607 0.442791 0.442971 0.443148 0.443321 0.443489 0.443653 0.443813 0.443968 0.444118 0.444264 0.444404 0.44454 0.44467 0.444795 0.444915 0.445029 0.445138 0.445242 0.44534 0.445433 0.44552 0.445602 0.445679 0.44575 0.445815 0.445876 0.445931 0.44598 0.446025 0.446064 0.446098 0.446127 0.44615 0.446169 0.446182 0.44619 0.446194 0.446192 0.446185 0.446173 0.446157 0.446135 0.446108 0.446077 0.44604 0.445999 0.445953 0.445903 0.445848 0.44579 0.445728 0.445663 0.445596 0.445529 0.445462 0.445398 0.445339 0.445287 0.445245 0.445216 0.445201 0.444196 0.444207 0.44423 0.444263 0.444304 0.444352 0.444404 0.444459 0.444515 0.44457 0.444624 0.444676 0.444724 0.444769 0.44481 0.444847 0.44488 0.444908 0.444932 0.444951 0.444966 0.44497