# vtk DataFile Version 3.0
Immiscible displacement
ASCII
DATASET RECTILINEAR_GRID
DIMENSIONS 200 200 1
X_COORDINATES 200 double
1 2 3 4 5 6 7 8 9 10 11 12 13 14 15 16 17 18 19 20 21 22 23 24 25 26 27 28 29 30 31 32 33 34 35 36 37 38 39 40 41 42 43 44 45 46 47 48 49 50 51 52 53 54 55 56 57 58 59 60 61 62 63 64 65 66 67 68 69 70 71 72 73 74 75 76 77 78 79 80 81 82 83 84 85 86 87 88 89 90 91 92 93 94 95 96 97 98 99 100 101 102 103 104 105 106 107 108 109 110 111 112 113 114 115 116 117 118 119 120 121 122 123 124 125 126 127 128 129 130 131 132 133 134 135 136 137 138 139 140 141 142 143 144 145 146 147 148 149 150 151 152 153 154 155 156 157 158 159 160 161 162 163 164 165 166 167 168 169 170 171 172 173 174 175 176 177 178 179 180 181 182 183 184 185 186 187 188 189 190 191 192 193 194 195 196 197 198 199 200 
Y_COORDINATES 200 double
1 2 3 4 5 6 7 8 9 10 11 12 13 14 15 16 17 18 19 20 21 22 23 24 25 26 27 28 29 30 31 32 33 34 35 36 37 38 39 40 41 42 43 44 45 46 47 48 49 50 51 52 53 54 55 56 57 58 59 60 61 62 63 64 65 66 67 68 69 70 71 72 73 74 75 76 77 78 79 80 81 82 83 84 85 86 87 88 89 90 91 92 93 94 95 96 97 98 99 100 101 102 103 104 105 106 107 108 109 110 111 112 113 114 115 116 117 118 119 120 121 122 123 124 125 126 127 128 129 130 131 132 133 134 135 136 137 138 139 140 141 142 143 144 145 146 147 148 149 150 151 152 153 154 155 156 157 158 159 160 161 162 163 164 165 166 167 168 169 170 171 172 173 174 175 176 177 178 179 180 181 182 183 184 185 186 187 188 189 190 191 192 193 194 195 196 197 198 199 200 
Z_COORDINATES 1 double
0
POINT_DATA 40000
SCALARS rho double 1
LOOKUP_TABLE default
0.428435 0.428472 0.428524 0.428582 0.428643 0.428705 0.42877 0.42884 0.428915 0.428998 0.429092 0.429198 0.42932 0.429463 0.429629 0.429828 0.430066 0.430355 0.430711 0.431155 0.431712 0.432423 0.433333 0.434512 0.436047 0.438058 0.440702 0.444194 0.448814 0.454942 0.463078 0.473889 0.488249 0.507303 0.532517 0.56573 0.609138 0.665174 0.736143 0.823524 0.926884 1.04274 1.16408 1.28143 1.38552 1.47023 1.53395 1.57881 1.6088 1.62808 1.64011 1.64743 1.65176 1.65423 1.65556 1.65617 1.65635 1.65627 1.65602 1.65567 1.65526 1.65481 1.65434 1.65386 1.65336 1.65287 1.65237 1.65188 1.65139 1.65091 1.65042 1.64995 1.64949 1.64903 1.64858 1.64814 1.64771 1.6473 1.64689 1.64651 1.64613 1.64577 1.64542 1.64509 1.64477 1.64448 1.6442 1.64394 1.6437 1.64348 1.64327 1.6431 1.64293 1.6428 1.64267 1.64258 1.6425 1.64245 1.64242 1.64241 1.64243 1.64246 1.64252 1.6426 1.6427 1.64283 1.64297 1.64314 1.64332 1.64353 1.64376 1.644 1.64427 1.64455 1.64485 1.64517 1.6455 1.64585 1.64622 1.6466 1.64699 1.6474 1.64781 1.64824 1.64868 1.64913 1.64959 1.65006 1.65053 1.65101 1.65149 1.65199 1.65248 1.65297 1.65347 1.65396 1.65444 1.65491 1.65536 1.65577 1.65612 1.65636 1.65644 1.65626 1.65563 1.65429 1.6518 1.64743 1.64005 1.62794 1.60852 1.57834 1.53322 1.46919 1.38417 1.27982 1.16234 1.04102 0.92531 0.822182 0.735061 0.664343 0.608527 0.565303 0.532237 0.507138 0.488173 0.473881 0.463121 0.455023 0.448922 0.444321 0.440842 0.438205 0.436197 0.434662 0.433479 0.432562 0.431843 0.431276 0.430821 0.430452 0.430149 0.429898 0.429685 0.429504 0.429347 0.429212 0.429093 0.428988 0.428895 0.428812 0.428737 0.428669 0.428606 0.428548 0.428492 0.428439 0.428393 0.42836 0.428484 0.428513 0.428558 0.428611 0.428668 0.428728 0.428792 0.42886 0.428934 0.429017 0.429109 0.429215 0.429335 0.429477 0.429642 0.429839 0.430075 0.430363 0.430716 0.431157 0.431711 0.432418 0.433323 0.434497 0.436023 0.438025 0.440655 0.444129 0.448725 0.454822 0.462914 0.473668 0.487949 0.506899 0.531973 0.565003 0.608174 0.663918 0.73454 0.821548 0.924559 1.04017 1.16145 1.27896 1.38339 1.46855 1.53272 1.57797 1.60825 1.62773 1.63989 1.64729 1.65168 1.65419 1.65553 1.65616 1.65635 1.65628 1.65603 1.65569 1.65528 1.65483 1.65436 1.65388 1.65339 1.6529 1.6524 1.65192 1.65142 1.65094 1.65046 1.64999 1.64953 1.64908 1.64862 1.64819 1.64776 1.64735 1.64695 1.64656 1.64618 1.64583 1.64548 1.64515 1.64483 1.64454 1.64426 1.64401 1.64376 1.64354 1.64334 1.64316 1.643 1.64286 1.64274 1.64265 1.64257 1.64252 1.64249 1.64249 1.64249 1.64254 1.64259 1.64267 1.64277 1.6429 1.64304 1.64321 1.64339 1.6436 1.64382 1.64407 1.64433 1.64461 1.64491 1.64523 1.64556 1.64591 1.64627 1.64665 1.64704 1.64745 1.64786 1.64829 1.64872 1.64918 1.64963 1.6501 1.65056 1.65105 1.65153 1.65202 1.65251 1.653 1.65349 1.65398 1.65446 1.65493 1.65537 1.65578 1.65612 1.65637 1.65644 1.65625 1.6556 1.65425 1.65171 1.64729 1.63983 1.62758 1.60797 1.5775 1.53199 1.46752 1.38204 1.27736 1.15972 1.03846 0.922998 0.820219 0.733469 0.663095 0.60757 0.56458 0.531696 0.506736 0.487874 0.47366 0.462957 0.454902 0.448832 0.444256 0.440794 0.43817 0.436172 0.434644 0.433467 0.432555 0.43184 0.431276 0.430823 0.430458 0.430157 0.429907 0.429695 0.429516 0.429361 0.429227 0.429108 0.429005 0.428912 0.428831 0.428756 0.42869 0.428628 0.428571 0.428518 0.42847 0.42843 0.428404 0.42856 0.428581 0.428617 0.428663 0.428714 0.42877 0.42883 0.428896 0.428968 0.429048 0.429138 0.429242 0.429361 0.4295 0.429662 0.429856 0.430089 0.430373 0.430722 0.431158 0.431706 0.432405 0.433301 0.434463 0.435974 0.437955 0.44056 0.443999 0.448548 0.454583 0.462592 0.473233 0.487363 0.50611 0.530915 0.563592 0.606308 0.661487 0.731443 0.817732 0.920068 1.0352 1.15634 1.27414 1.37923 1.46525 1.53029 1.57628 1.60713 1.62701 1.63944 1.64702 1.65151 1.65409 1.65548 1.65614 1.65635 1.65628 1.65605 1.65571 1.6553 1.65487 1.6544 1.65392 1.65343 1.65295 1.65245 1.65197 1.65148 1.651 1.65052 1.65006 1.64959 1.64915 1.6487 1.64827 1.64784 1.64743 1.64703 1.64665 1.64627 1.64592 1.64557 1.64525 1.64493 1.64464 1.64436 1.64411 1.64386 1.64365 1.64344 1.64327 1.64311 1.64297 1.64285 1.64276 1.64268 1.64263 1.6426 1.6426 1.6426 1.64265 1.6427 1.64278 1.64288 1.64301 1.64314 1.64331 1.64349 1.6437 1.64392 1.64417 1.64443 1.64471 1.645 1.64532 1.64565 1.646 1.64636 1.64674 1.64712 1.64753 1.64794 1.64836 1.6488 1.64924 1.64969 1.65016 1.65063 1.65111 1.65158 1.65207 1.65255 1.65305 1.65353 1.65402 1.6545 1.65497 1.6554 1.65581 1.65614 1.65638 1.65643 1.65622 1.65555 1.65415 1.65155 1.64701 1.63938 1.62686 1.60684 1.57581 1.52956 1.46421 1.37788 1.27254 1.15462 1.03351 0.918531 0.816425 0.730392 0.66068 0.605717 0.563178 0.530644 0.505952 0.487291 0.473226 0.462635 0.454663 0.448655 0.444124 0.440697 0.438099 0.43612 0.434608 0.433442 0.43254 0.431832 0.431274 0.430827 0.430465 0.430168 0.429921 0.429713 0.429536 0.429383 0.429251 0.429135 0.429033 0.428943 0.428863 0.42879 0.428726 0.428667 0.428613 0.428565 0.428523 0.428491 0.428472 0.42865 0.428666 0.428694 0.428731 0.428775 0.428826 0.428881 0.428943 0.429012 0.429089 0.429177 0.429277 0.429393 0.429529 0.429687 0.429878 0.430106 0.430384 0.430727 0.431156 0.431695 0.432383 0.433266 0.43441 0.435899 0.437851 0.440417 0.443806 0.448288 0.454231 0.462119 0.472597 0.486508 0.504963 0.529379 0.561546 0.603607 0.657971 0.726965 0.812208 0.913554 1.02797 1.14887 1.26705 1.37307 1.46033 1.52664 1.57374 1.60543 1.62592 1.63875 1.64659 1.65126 1.65395 1.6554 1.6561 1.65634 1.65629 1.65607 1.65574 1.65534 1.65491 1.65445 1.65398 1.65349 1.65301 1.65252 1.65204 1.65155 1.65108 1.6506 1.65014 1.64968 1.64923 1.64879 1.64836 1.64794 1.64753 1.64713 1.64675 1.64638 1.64603 1.64568 1.64536 1.64505 1.64476 1.64448 1.64423 1.64399 1.64378 1.64357 1.6434 1.64324 1.6431 1.64298 1.64289 1.64282 1.64277 1.64273 1.64273 1.64274 1.64278 1.64283 1.64292 1.64301 1.64314 1.64327 1.64344 1.64362 1.64383 1.64405 1.64429 1.64455 1.64483 1.64512 1.64544 1.64576 1.64611 1.64646 1.64684 1.64722 1.64763 1.64803 1.64846 1.64889 1.64933 1.64978 1.65024 1.6507 1.65118 1.65165 1.65214 1.65262 1.65311 1.65359 1.65408 1.65454 1.65501 1.65544 1.65584 1.65616 1.65638 1.65642 1.65618 1.65547 1.654 1.65129 1.64659 1.63869 1.62576 1.60514 1.57326 1.5259 1.45929 1.37172 1.26547 1.14718 1.0263 0.912049 0.810931 0.725941 0.657187 0.603033 0.561146 0.529118 0.504811 0.48644 0.472593 0.462163 0.454311 0.448393 0.443929 0.440552 0.437993 0.436043 0.434552 0.433404 0.432515 0.431818 0.431269 0.430828 0.430473 0.430181 0.429939 0.429734 0.429561 0.429412 0.429282 0.429169 0.42907 0.428982 0.428904 0.428835 0.428773 0.428718 0.42867 0.428627 0.428592 0.428566 0.428552 0.428748 0.428759 0.42878 0.42881 0.428847 0.428891 0.428941 0.428999 0.429063 0.429137 0.42922 0.429317 0.429429 0.429561 0.429715 0.4299 0.430123 0.430395 0.43073 0.431149 0.431678 0.432352 0.433217 0.434339 0.4358 0.437714 0.440231 0.443554 0.447948 0.453776 0.461507 0.471776 0.485407 0.503487 0.527406 0.558921 0.600144 0.653462 0.721217 0.805106 0.905157 1.0186 1.13915 1.25776 1.36494 1.45379 1.52176 1.57031 1.60313 1.62443 1.63781 1.64601 1.65091 1.65374 1.65529 1.65605 1.65632 1.6563 1.65609 1.65578 1.65539 1.65496 1.6545 1.65404 1.65356 1.65308 1.65259 1.65212 1.65163 1.65117 1.65069 1.65024 1.64978 1.64934 1.64889 1.64847 1.64805 1.64765 1.64725 1.64687 1.6465 1.64615 1.64581 1.64549 1.64518 1.6449 1.64462 1.64437 1.64413 1.64392 1.64372 1.64354 1.64338 1.64325 1.64313 1.64304 1.64296 1.64292 1.64288 1.64288 1.64289 1.64293 1.64298 1.64306 1.64316 1.64328 1.64342 1.64359 1.64376 1.64397 1.64419 1.64443 1.64468 1.64496 1.64525 1.64557 1.64589 1.64623 1.64659 1.64696 1.64734 1.64774 1.64814 1.64857 1.64899 1.64943 1.64988 1.65034 1.65079 1.65127 1.65173 1.65222 1.65269 1.65318 1.65366 1.65414 1.6546 1.65506 1.65548 1.65587 1.65618 1.65639 1.65641 1.65613 1.65536 1.65379 1.65094 1.646 1.63774 1.62427 1.60283 1.56982 1.52101 1.45274 1.36359 1.25619 1.13748 1.01697 0.90369 0.803867 0.720227 0.652706 0.599592 0.558538 0.527157 0.503344 0.485345 0.471776 0.461554 0.453857 0.448054 0.443676 0.440364 0.437853 0.43594 0.434478 0.433351 0.432479 0.431796 0.431258 0.430827 0.430479 0.430193 0.429957 0.429758 0.429589 0.429443 0.429318 0.429208 0.429112 0.429027 0.428953 0.428887 0.428829 0.428778 0.428735 0.428698 0.42867 0.42865 0.42864 0.428848 0.428855 0.428871 0.428894 0.428924 0.428962 0.429007 0.429059 0.429119 0.429188 0.429268 0.42936 0.429468 0.429594 0.429744 0.429923 0.430139 0.430403 0.430729 0.431138 0.431653 0.432311 0.433155 0.43425 0.435676 0.437546 0.440003 0.443248 0.447538 0.453225 0.46077 0.470788 0.484083 0.501715 0.525039 0.555775 0.595992 0.648055 0.714316 0.796559 0.895012 1.00722 1.12726 1.24631 1.35483 1.4456 1.5156 1.56595 1.60019 1.62251 1.63659 1.64526 1.65045 1.65347 1.65514 1.65597 1.65629 1.65631 1.65612 1.65582 1.65544 1.65502 1.65457 1.65411 1.65363 1.65316 1.65268 1.65221 1.65173 1.65126 1.65079 1.65034 1.64988 1.64945 1.64901 1.64859 1.64817 1.64777 1.64738 1.647 1.64663 1.64629 1.64595 1.64563 1.64532 1.64504 1.64476 1.64452 1.64428 1.64407 1.64387 1.6437 1.64353 1.6434 1.64328 1.6432 1.64312 1.64307 1.64304 1.64303 1.64304 1.64308 1.64313 1.64322 1.64331 1.64344 1.64357 1.64374 1.64391 1.64412 1.64433 1.64457 1.64483 1.64511 1.64539 1.6457 1.64602 1.64637 1.64672 1.64709 1.64746 1.64786 1.64826 1.64868 1.6491 1.64954 1.64998 1.65044 1.65089 1.65136 1.65183 1.6523 1.65278 1.65326 1.65373 1.65421 1.65467 1.65512 1.65553 1.65591 1.65621 1.65639 1.65638 1.65605 1.6552 1.65352 1.65047 1.64524 1.63652 1.62234 1.59988 1.56544 1.51483 1.44454 1.35349 1.24476 1.12562 1.00563 0.893588 0.795363 0.713363 0.647331 0.595465 0.55541 0.524805 0.501582 0.484028 0.470793 0.460819 0.453308 0.447643 0.443369 0.440135 0.437682 0.435814 0.434386 0.433286 0.432434 0.431767 0.431242 0.430822 0.430483 0.430205 0.429975 0.429781 0.429617 0.429476 0.429355 0.429249 0.429157 0.429076 0.429005 0.428943 0.42889 0.428844 0.428806 0.428775 0.428752 0.428737 0.42873 0.428947 0.428952 0.428962 0.42898 0.429004 0.429036 0.429075 0.429122 0.429177 0.429242 0.429316 0.429404 0.429507 0.429628 0.429772 0.429944 0.430153 0.430409 0.430725 0.431121 0.431621 0.43226 0.433081 0.434145 0.435532 0.43735 0.439739 0.442894 0.447064 0.452591 0.459921 0.469651 0.482562 0.49968 0.522324 0.552164 0.591229 0.641845 0.706377 0.786697 0.883253 0.993951 1.11329 1.23273 1.34273 1.43568 1.50807 1.56059 1.59655 1.62013 1.63507 1.64431 1.64987 1.65313 1.65494 1.65587 1.65625 1.65631 1.65614 1.65586 1.65549 1.65509 1.65464 1.65419 1.65372 1.65325 1.65277 1.6523 1.65183 1.65137 1.6509 1.65045 1.65 1.64956 1.64913 1.64871 1.6483 1.6479 1.64751 1.64714 1.64677 1.64643 1.64609 1.64577 1.64547 1.64519 1.64491 1.64467 1.64443 1.64422 1.64402 1.64385 1.64369 1.64356 1.64344 1.64335 1.64328 1.64323 1.6432 1.64319 1.6432 1.64324 1.64329 1.64337 1.64347 1.64359 1.64373 1.64389 1.64407 1.64427 1.64448 1.64472 1.64497 1.64525 1.64554 1.64585 1.64616 1.6465 1.64685 1.64722 1.64759 1.64799 1.64839 1.6488 1.64922 1.64966 1.65009 1.65055 1.651 1.65146 1.65193 1.6524 1.65287 1.65335 1.65381 1.65428 1.65474 1.65518 1.65559 1.65595 1.65623 1.65639 1.65634 1.65595 1.65501 1.65317 1.64989 1.64429 1.63499 1.61995 1.59623 1.56007 1.50729 1.43461 1.34138 1.23119 1.11167 0.992404 0.881877 0.785547 0.705466 0.641156 0.59073 0.551822 0.522106 0.49956 0.482516 0.469662 0.459974 0.452675 0.44717 0.443015 0.439869 0.437484 0.435667 0.434278 0.433208 0.432379 0.431731 0.431221 0.430812 0.430483 0.430214 0.429991 0.429804 0.429646 0.42951 0.429393 0.429291 0.429203 0.429126 0.429059 0.429002 0.428953 0.428912 0.428878 0.428853 0.428834 0.428823 0.428819 0.429043 0.429045 0.429052 0.429065 0.429084 0.42911 0.429144 0.429186 0.429236 0.429295 0.429365 0.429448 0.429545 0.429661 0.429798 0.429964 0.430164 0.430411 0.430716 0.431099 0.431582 0.4322 0.432995 0.434026 0.435369 0.437129 0.439443 0.442497 0.446534 0.451883 0.458974 0.468386 0.480869 0.497417 0.519304 0.54815 0.585929 0.63493 0.697516 0.775652 0.870018 0.97891 1.0973 1.21704 1.32858 1.42396 1.49909 1.55413 1.59214 1.61722 1.6332 1.64314 1.64915 1.65269 1.65469 1.65574 1.6562 1.6563 1.65617 1.65591 1.65555 1.65516 1.65472 1.65427 1.65381 1.65334 1.65287 1.65241 1.65194 1.65148 1.65102 1.65057 1.65012 1.64969 1.64926 1.64884 1.64843 1.64804 1.64765 1.64728 1.64691 1.64657 1.64623 1.64592 1.64562 1.64534 1.64507 1.64482 1.64458 1.64438 1.64418 1.64401 1.64385 1.64372 1.6436 1.64351 1.64344 1.64339 1.64336 1.64336 1.64336 1.6434 1.64345 1.64354 1.64363 1.64375 1.64389 1.64405 1.64422 1.64443 1.64464 1.64488 1.64513 1.6454 1.64568 1.64599 1.64631 1.64665 1.64699 1.64736 1.64773 1.64812 1.64852 1.64893 1.64935 1.64978 1.65021 1.65066 1.65111 1.65157 1.65203 1.6525 1.65297 1.65344 1.6539 1.65437 1.65481 1.65525 1.65565 1.656 1.65626 1.65639 1.65628 1.65582 1.65476 1.65274 1.64917 1.64311 1.63312 1.61703 1.5918 1.55359 1.49829 1.42287 1.32722 1.21551 1.09572 0.977408 0.868693 0.774554 0.69665 0.634278 0.58546 0.54783 0.519103 0.49731 0.480832 0.468403 0.459032 0.45197 0.446641 0.442618 0.439572 0.437262 0.435501 0.434155 0.433119 0.432316 0.431688 0.431194 0.430799 0.430481 0.43022 0.430005 0.429825 0.429673 0.429542 0.42943 0.429333 0.429249 0.429176 0.429114 0.429061 0.429016 0.428979 0.428951 0.428929 0.428915 0.428908 0.428905 0.429134 0.429135 0.429138 0.429147 0.429161 0.429183 0.429211 0.429248 0.429293 0.429348 0.429413 0.42949 0.429582 0.429692 0.429823 0.429981 0.430173 0.43041 0.430703 0.431072 0.431537 0.432133 0.4329 0.433894 0.43519 0.436888 0.43912 0.442065 0.445957 0.451113 0.457945 0.46701 0.47903 0.494959 0.516024 0.543789 0.580169 0.627404 0.687851 0.76356 0.855445 0.962219 1.07939 1.19924 1.31233 1.41034 1.48853 1.54647 1.58685 1.61371 1.63095 1.64171 1.64827 1.65216 1.65438 1.65558 1.65612 1.65628 1.65619 1.65595 1.65562 1.65523 1.65481 1.65437 1.6539 1.65345 1.65298 1.65252 1.65205 1.6516 1.65114 1.65069 1.65025 1.64982 1.64939 1.64898 1.64857 1.64817 1.64779 1.64742 1.64706 1.64672 1.64638 1.64607 1.64577 1.64549 1.64522 1.64498 1.64474 1.64454 1.64434 1.64417 1.64401 1.64388 1.64376 1.64368 1.6436 1.64356 1.64352 1.64352 1.64353 1.64357 1.64362 1.6437 1.64379 1.64391 1.64405 1.64421 1.64438 1.64458 1.64479 1.64503 1.64528 1.64555 1.64584 1.64614 1.64646 1.64679 1.64714 1.6475 1.64787 1.64826 1.64865 1.64906 1.64948 1.64991 1.65034 1.65079 1.65123 1.65169 1.65214 1.65261 1.65307 1.65354 1.654 1.65446 1.6549 1.65533 1.65571 1.65604 1.65628 1.65637 1.6562 1.65565 1.65445 1.65221 1.64828 1.64168 1.63085 1.61351 1.5865 1.5459 1.4877 1.40923 1.31097 1.19772 1.07784 0.960766 0.854175 0.762514 0.687032 0.626791 0.579731 0.543494 0.515842 0.494866 0.479004 0.467035 0.458008 0.451203 0.446066 0.442187 0.439248 0.437019 0.43532 0.434021 0.43302 0.432246 0.43164 0.431163 0.430782 0.430475 0.430224 0.430017 0.429844 0.429698 0.429573 0.429466 0.429374 0.429294 0.429226 0.429168 0.429118 0.429078 0.429046 0.429021 0.429004 0.428993 0.428988 0.428987 0.429219 0.429218 0.429219 0.429224 0.429235 0.429252 0.429276 0.429308 0.429348 0.429398 0.429458 0.429531 0.429617 0.429721 0.429845 0.429996 0.430179 0.430406 0.430686 0.43104 0.431487 0.43206 0.432796 0.433752 0.434997 0.436629 0.438774 0.441603 0.445341 0.45029 0.456847 0.465543 0.477069 0.492339 0.512528 0.53914 0.574023 0.619363 0.677499 0.750555 0.839678 0.944009 1.05964 1.17936 1.29393 1.39469 1.47624 1.53745 1.58058 1.60952 1.62823 1.63999 1.64719 1.65151 1.654 1.65537 1.65602 1.65625 1.6562 1.656 1.65568 1.65531 1.6549 1.65446 1.65401 1.65356 1.65309 1.65263 1.65217 1.65172 1.65126 1.65082 1.65038 1.64995 1.64953 1.64912 1.64871 1.64832 1.64793 1.64757 1.64721 1.64687 1.64654 1.64623 1.64593 1.64565 1.64538 1.64514 1.6449 1.6447 1.6445 1.64433 1.64417 1.64405 1.64393 1.64384 1.64377 1.64372 1.64369 1.64368 1.64369 1.64373 1.64378 1.64386 1.64395 1.64407 1.64421 1.64437 1.64454 1.64474 1.64495 1.64519 1.64544 1.64571 1.64599 1.6463 1.64661 1.64694 1.64728 1.64765 1.64801 1.6484 1.64879 1.6492 1.64961 1.65004 1.65047 1.65091 1.65136 1.65181 1.65226 1.65273 1.65318 1.65365 1.6541 1.65456 1.65499 1.6554 1.65577 1.65609 1.65629 1.65633 1.6561 1.65544 1.65406 1.65155 1.6472 1.63995 1.62812 1.6093 1.5802 1.53685 1.47538 1.39356 1.29256 1.17786 1.05813 0.942608 0.838465 0.749565 0.676729 0.618791 0.573619 0.538871 0.512366 0.492261 0.477054 0.465576 0.456916 0.450384 0.445452 0.441726 0.438902 0.436759 0.435126 0.433876 0.432914 0.432169 0.431586 0.431127 0.430761 0.430466 0.430225 0.430027 0.42986 0.429721 0.429601 0.4295 0.429412 0.429337 0.429273 0.429219 0.429174 0.429137 0.429109 0.429088 0.429074 0.429066 0.429063 0.429063 0.429298 0.429295 0.429294 0.429296 0.429303 0.429317 0.429337 0.429365 0.429401 0.429446 0.429501 0.429568 0.429649 0.429747 0.429864 0.430008 0.430182 0.430398 0.430666 0.431004 0.431432 0.43198 0.432685 0.433601 0.434793 0.436356 0.43841 0.441118 0.444694 0.449427 0.455695 0.464003 0.475011 0.48959 0.508859 0.534259 0.567566 0.610901 0.666577 0.736776 0.822866 0.924421 1.03814 1.15743 1.27331 1.37689 1.46205 1.5269 1.57317 1.60453 1.62497 1.63791 1.64589 1.65072 1.65353 1.6551 1.65589 1.6562 1.65621 1.65604 1.65575 1.6554 1.65499 1.65457 1.65412 1.65367 1.65321 1.65276 1.6523 1.65185 1.6514 1.65096 1.65052 1.65009 1.64967 1.64926 1.64886 1.64847 1.64808 1.64772 1.64736 1.64702 1.64669 1.64639 1.64608 1.64581 1.64554 1.6453 1.64507 1.64486 1.64466 1.6445 1.64434 1.64421 1.64409 1.64401 1.64393 1.64388 1.64385 1.64385 1.64386 1.64389 1.64395 1.64403 1.64412 1.64424 1.64437 1.64453 1.6447 1.6449 1.64511 1.64535 1.6456 1.64587 1.64615 1.64645 1.64676 1.6471 1.64744 1.6478 1.64816 1.64855 1.64894 1.64935 1.64975 1.65018 1.65061 1.65105 1.65149 1.65194 1.65239 1.65285 1.6533 1.65376 1.65421 1.65466 1.65508 1.65549 1.65584 1.65613 1.6563 1.65628 1.65597 1.65517 1.65359 1.65075 1.6459 1.63786 1.62484 1.60429 1.57276 1.52627 1.46116 1.37573 1.27194 1.15595 1.03667 0.923074 0.821713 0.735843 0.665857 0.610371 0.567195 0.534016 0.508718 0.489526 0.475007 0.464044 0.455769 0.449525 0.444807 0.441241 0.438538 0.436486 0.434921 0.433723 0.4328 0.432086 0.431527 0.431088 0.430736 0.430454 0.430223 0.430034 0.429875 0.429741 0.429628 0.429531 0.429448 0.429378 0.429318 0.429268 0.429226 0.429193 0.429168 0.42915 0.429139 0.429134 0.429133 0.429134 0.429369 0.429365 0.429362 0.429362 0.429367 0.429377 0.429393 0.429417 0.429449 0.42949 0.429541 0.429603 0.429678 0.42977 0.429881 0.430017 0.430182 0.430388 0.430643 0.430965 0.431373 0.431897 0.43257 0.433444 0.434582 0.436073 0.438032 0.440614 0.444022 0.448532 0.4545 0.462408 0.472879 0.486741 0.505058 0.529201 0.560869 0.602111 0.6552 0.722362 0.805165 0.903607 1.01502 1.1335 1.25044 1.3568 1.44578 1.51464 1.56446 1.59861 1.62107 1.6354 1.64432 1.64975 1.65295 1.65477 1.65572 1.65613 1.65621 1.65608 1.65582 1.65548 1.65509 1.65468 1.65424 1.65379 1.65334 1.65289 1.65243 1.65199 1.65154 1.6511 1.65066 1.65024 1.64982 1.64941 1.64901 1.64862 1.64824 1.64788 1.64752 1.64719 1.64685 1.64655 1.64625 1.64597 1.64571 1.64546 1.64523 1.64503 1.64483 1.64466 1.64451 1.64438 1.64426 1.64417 1.6441 1.64405 1.64402 1.64402 1.64402 1.64406 1.64411 1.64419 1.64429 1.64441 1.64454 1.6447 1.64487 1.64507 1.64528 1.64552 1.64576 1.64603 1.64631 1.64661 1.64692 1.64726 1.64759 1.64795 1.64832 1.6487 1.64909 1.6495 1.6499 1.65033 1.65075 1.65119 1.65163 1.65208 1.65252 1.65298 1.65343 1.65388 1.65433 1.65477 1.65518 1.65557 1.6559 1.65617 1.65629 1.65621 1.65579 1.65484 1.653 1.64977 1.64431 1.63534 1.62093 1.59834 1.56401 1.51397 1.44485 1.35561 1.24906 1.13203 1.0136 0.902317 0.804073 0.721487 0.654531 0.601623 0.560531 0.528984 0.504937 0.486693 0.472887 0.462458 0.454581 0.448634 0.444139 0.440739 0.438161 0.436202 0.434708 0.433564 0.432682 0.432 0.431466 0.431045 0.430709 0.43044 0.430219 0.430038 0.429886 0.429759 0.429651 0.42956 0.429481 0.429415 0.429359 0.429313 0.429275 0.429245 0.429223 0.429208 0.429199 0.429195 0.429196 0.429198 0.429432 0.429428 0.429424 0.429422 0.429424 0.429431 0.429445 0.429465 0.429493 0.42953 0.429576 0.429634 0.429704 0.42979 0.429895 0.430023 0.43018 0.430375 0.430617 0.430924 0.431312 0.43181 0.43245 0.433282 0.434364 0.435783 0.437644 0.440098 0.443335 0.447615 0.453277 0.460774 0.470695 0.483823 0.501164 0.524017 0.554 0.593082 0.643482 0.707453 0.786735 0.881732 0.990425 1.10763 1.22529 1.33429 1.42723 1.50043 1.55422 1.59158 1.61641 1.63239 1.64241 1.64856 1.65223 1.65435 1.65549 1.65603 1.65618 1.65611 1.65588 1.65557 1.65519 1.65479 1.65436 1.65392 1.65347 1.65303 1.65257 1.65213 1.65168 1.65125 1.65081 1.65039 1.64997 1.64957 1.64917 1.64878 1.6484 1.64804 1.64768 1.64735 1.64702 1.64671 1.64642 1.64614 1.64587 1.64563 1.6454 1.6452 1.645 1.64483 1.64468 1.64455 1.64443 1.64435 1.64427 1.64422 1.64419 1.64419 1.6442 1.64423 1.64428 1.64436 1.64446 1.64458 1.64471 1.64487 1.64504 1.64524 1.64545 1.64568 1.64593 1.6462 1.64648 1.64678 1.64709 1.64742 1.64776 1.64812 1.64848 1.64886 1.64925 1.64965 1.65006 1.65048 1.6509 1.65134 1.65177 1.65222 1.65266 1.65311 1.65356 1.65401 1.65445 1.65488 1.65528 1.65566 1.65597 1.65619 1.65627 1.65611 1.65556 1.65441 1.65228 1.64858 1.64239 1.63231 1.61624 1.59128 1.55374 1.49972 1.42625 1.33308 1.2239 1.10619 0.989043 0.880502 0.785706 0.706636 0.642864 0.592636 0.553696 0.523826 0.501063 0.483791 0.470715 0.460832 0.453364 0.447722 0.443454 0.440225 0.437774 0.435912 0.434489 0.433401 0.432561 0.43191 0.431401 0.431 0.43068 0.430423 0.430213 0.43004 0.429896 0.429775 0.429672 0.429586 0.429511 0.429449 0.429397 0.429354 0.429319 0.429292 0.429272 0.42926 0.429253 0.429251 0.429252 0.429255 0.429488 0.429484 0.429478 0.429475 0.429475 0.42948 0.429491 0.429508 0.429533 0.429566 0.429608 0.429662 0.429727 0.429808 0.429906 0.430027 0.430175 0.430359 0.430589 0.43088 0.431248 0.43172 0.432328 0.433117 0.434143 0.435488 0.437251 0.439575 0.442638 0.446685 0.452036 0.459116 0.468481 0.480864 0.497214 0.518757 0.547026 0.5839 0.631537 0.692188 0.767742 0.858975 0.964507 1.07995 1.19786 1.30926 1.40619 1.48404 1.54223 1.58324 1.61082 1.62875 1.64008 1.64711 1.65134 1.65383 1.6552 1.65589 1.65614 1.65613 1.65594 1.65566 1.6553 1.65491 1.65449 1.65406 1.65361 1.65317 1.65272 1.65228 1.65184 1.65141 1.65097 1.65056 1.65014 1.64973 1.64933 1.64895 1.64857 1.64821 1.64786 1.64752 1.64719 1.64689 1.64659 1.64631 1.64605 1.64581 1.64558 1.64537 1.64518 1.64501 1.64485 1.64473 1.64461 1.64452 1.64445 1.6444 1.64437 1.64436 1.64437 1.64441 1.64446 1.64454 1.64463 1.64475 1.64488 1.64504 1.64521 1.64541 1.64562 1.64586 1.6461 1.64637 1.64665 1.64695 1.64726 1.64759 1.64792 1.64828 1.64864 1.64903 1.64941 1.64981 1.65022 1.65064 1.65106 1.65149 1.65192 1.65237 1.65281 1.65326 1.6537 1.65414 1.65457 1.655 1.65539 1.65574 1.65603 1.65621 1.65622 1.65597 1.65527 1.65389 1.65138 1.64712 1.64006 1.62865 1.61063 1.5829 1.5417 1.48327 1.40516 1.30802 1.19647 1.07853 0.963176 0.857808 0.766777 0.69143 0.630969 0.583496 0.546755 0.518592 0.497133 0.480847 0.468512 0.459183 0.452129 0.446796 0.44276 0.439703 0.437382 0.435617 0.434268 0.433235 0.432437 0.431819 0.431335 0.430954 0.430649 0.430404 0.430204 0.43004 0.429902 0.429788 0.42969 0.429608 0.429538 0.42948 0.42943 0.429391 0.429358 0.429334 0.429317 0.429306 0.429301 0.4293 0.429302 0.429305 0.429537 0.429532 0.429526 0.429521 0.42952 0.429523 0.429531 0.429546 0.429568 0.429598 0.429636 0.429686 0.429746 0.429822 0.429914 0.430028 0.430167 0.430342 0.430559 0.430834 0.431183 0.43163 0.432204 0.43295 0.433921 0.435191 0.436856 0.439049 0.441937 0.445751 0.450789 0.45745 0.466255 0.47789 0.493244 0.513468 0.540008 0.57465 0.619471 0.676706 0.748355 0.83553 0.937461 1.05058 1.1682 1.28162 1.38246 1.46518 1.52821 1.57335 1.60412 1.62434 1.63725 1.64532 1.65024 1.65317 1.65482 1.6557 1.65607 1.65613 1.65599 1.65574 1.65541 1.65503 1.65462 1.6542 1.65376 1.65332 1.65288 1.65244 1.652 1.65157 1.65114 1.65072 1.65031 1.6499 1.64951 1.64912 1.64875 1.64839 1.64803 1.6477 1.64737 1.64707 1.64677 1.64649 1.64623 1.64599 1.64576 1.64555 1.64536 1.64519 1.64503 1.64491 1.64479 1.6447 1.64463 1.64458 1.64455 1.64454 1.64455 1.64459 1.64464 1.64472 1.64481 1.64493 1.64506 1.64522 1.64539 1.64559 1.6458 1.64603 1.64628 1.64655 1.64682 1.64713 1.64743 1.64776 1.6481 1.64846 1.64882 1.6492 1.64958 1.64998 1.65038 1.6508 1.65122 1.65165 1.65208 1.65253 1.65296 1.65341 1.65385 1.65428 1.65471 1.65512 1.65549 1.65583 1.65608 1.65621 1.65614 1.65577 1.65489 1.65322 1.65027 1.64532 1.63721 1.62422 1.6039 1.57297 1.52763 1.46436 1.38139 1.28035 1.16682 1.0492 0.936184 0.834426 0.747455 0.676007 0.618953 0.574286 0.53977 0.513329 0.493183 0.477888 0.466297 0.457526 0.450888 0.445866 0.442062 0.439179 0.436988 0.43532 0.434045 0.433068 0.432312 0.431727 0.431267 0.430906 0.430616 0.430384 0.430193 0.430037 0.429907 0.429798 0.429705 0.429628 0.429561 0.429506 0.42946 0.429423 0.429394 0.429372 0.429356 0.429347 0.429343 0.429343 0.429346 0.429349 0.429578 0.429573 0.429566 0.429561 0.429558 0.429559 0.429566 0.429578 0.429598 0.429625 0.42966 0.429706 0.429762 0.429833 0.429919 0.430026 0.430158 0.430323 0.430528 0.430788 0.431117 0.431539 0.432081 0.432785 0.433699 0.434895 0.436463 0.438524 0.441238 0.444819 0.449545 0.455789 0.464035 0.474925 0.489286 0.508194 0.533006 0.565408 0.607389 0.661142 0.728746 0.811597 0.909502 1.01972 1.13641 1.25133 1.35586 1.44358 1.51185 1.56164 1.59609 1.619 1.63379 1.64311 1.64886 1.65233 1.65434 1.65543 1.65595 1.65611 1.65603 1.65582 1.65552 1.65516 1.65476 1.65435 1.65392 1.65348 1.65304 1.65261 1.65217 1.65174 1.65131 1.6509 1.65048 1.65008 1.64969 1.64931 1.64893 1.64857 1.64822 1.64788 1.64756 1.64725 1.64695 1.64668 1.64642 1.64617 1.64594 1.64574 1.64555 1.64538 1.64522 1.64509 1.64498 1.64489 1.64482 1.64477 1.64474 1.64473 1.64474 1.64478 1.64483 1.64491 1.645 1.64512 1.64525 1.64541 1.64558 1.64578 1.64599 1.64622 1.64646 1.64673 1.64701 1.64731 1.64762 1.64795 1.64828 1.64864 1.649 1.64938 1.64976 1.65016 1.65056 1.65098 1.65139 1.65182 1.65225 1.65269 1.65313 1.65357 1.654 1.65443 1.65484 1.65524 1.6556 1.6559 1.65611 1.65619 1.65602 1.6555 1.6544 1.65238 1.64889 1.64311 1.63373 1.61886 1.59582 1.56121 1.51121 1.4427 1.35474 1.25003 1.13503 1.01837 0.908282 0.810561 0.727912 0.660502 0.606921 0.565084 0.532799 0.50808 0.489244 0.474938 0.464089 0.455873 0.449651 0.444939 0.441367 0.438657 0.436596 0.435025 0.433823 0.432901 0.432188 0.431634 0.4312 0.430857 0.430583 0.430362 0.430181 0.430033 0.429909 0.429805 0.429717 0.429644 0.429581 0.429529 0.429486 0.429451 0.429424 0.429404 0.42939 0.429382 0.429379 0.42938 0.429383 0.429386 0.429611 0.429606 0.4296 0.429593 0.42959 0.42959 0.429595 0.429606 0.429623 0.429647 0.42968 0.429722 0.429775 0.429841 0.429922 0.430023 0.430147 0.430302 0.430496 0.43074 0.431051 0.431448 0.431958 0.43262 0.43348 0.434603 0.436073 0.438005 0.440547 0.443897 0.448314 0.454145 0.461839 0.471991 0.48537 0.502976 0.526074 0.556249 0.595389 0.645628 0.709085 0.787389 0.880866 0.987585 1.10263 1.21841 1.32625 1.41898 1.49281 1.54776 1.58644 1.61252 1.62954 1.64039 1.64715 1.65127 1.65371 1.65508 1.65578 1.65605 1.65605 1.65589 1.65562 1.65529 1.6549 1.6545 1.65408 1.65365 1.65321 1.65278 1.65235 1.65192 1.6515 1.65108 1.65067 1.65027 1.64987 1.64949 1.64912 1.64876 1.64841 1.64808 1.64775 1.64744 1.64715 1.64687 1.64661 1.64637 1.64614 1.64593 1.64574 1.64557 1.64542 1.64529 1.64517 1.64508 1.64501 1.64496 1.64493 1.64493 1.64493 1.64497 1.64502 1.6451 1.64519 1.64531 1.64544 1.6456 1.64577 1.64597 1.64618 1.64641 1.64666 1.64693 1.6472 1.6475 1.64781 1.64814 1.64847 1.64883 1.64919 1.64956 1.64995 1.65034 1.65074 1.65116 1.65157 1.652 1.65243 1.65286 1.65329 1.65373 1.65416 1.65458 1.65498 1.65537 1.6557 1.65597 1.65613 1.65613 1.65585 1.65515 1.65376 1.65131 1.64716 1.64036 1.62945 1.61234 1.58613 1.54728 1.49211 1.41803 1.32508 1.21709 1.10127 0.986283 0.879709 0.78642 0.708315 0.645046 0.594969 0.555964 0.525898 0.502886 0.485347 0.472019 0.461904 0.454238 0.448426 0.444022 0.440679 0.43814 0.436208 0.434734 0.433604 0.432736 0.432065 0.431542 0.431132 0.430808 0.430548 0.430339 0.430167 0.430027 0.429909 0.42981 0.429727 0.429657 0.429598 0.429548 0.429507 0.429475 0.429449 0.429431 0.429418 0.429411 0.429409 0.42941 0.429413 0.429416 0.429638 0.429633 0.429626 0.42962 0.429615 0.429615 0.429618 0.429628 0.429643 0.429665 0.429695 0.429734 0.429