# vtk DataFile Version 3.0
Immiscible displacement
ASCII
DATASET RECTILINEAR_GRID
DIMENSIONS 200 200 1
X_COORDINATES 200 double
1 2 3 4 5 6 7 8 9 10 11 12 13 14 15 16 17 18 19 20 21 22 23 24 25 26 27 28 29 30 31 32 33 34 35 36 37 38 39 40 41 42 43 44 45 46 47 48 49 50 51 52 53 54 55 56 57 58 59 60 61 62 63 64 65 66 67 68 69 70 71 72 73 74 75 76 77 78 79 80 81 82 83 84 85 86 87 88 89 90 91 92 93 94 95 96 97 98 99 100 101 102 103 104 105 106 107 108 109 110 111 112 113 114 115 116 117 118 119 120 121 122 123 124 125 126 127 128 129 130 131 132 133 134 135 136 137 138 139 140 141 142 143 144 145 146 147 148 149 150 151 152 153 154 155 156 157 158 159 160 161 162 163 164 165 166 167 168 169 170 171 172 173 174 175 176 177 178 179 180 181 182 183 184 185 186 187 188 189 190 191 192 193 194 195 196 197 198 199 200 
Y_COORDINATES 200 double
1 2 3 4 5 6 7 8 9 10 11 12 13 14 15 16 17 18 19 20 21 22 23 24 25 26 27 28 29 30 31 32 33 34 35 36 37 38 39 40 41 42 43 44 45 46 47 48 49 50 51 52 53 54 55 56 57 58 59 60 61 62 63 64 65 66 67 68 69 70 71 72 73 74 75 76 77 78 79 80 81 82 83 84 85 86 87 88 89 90 91 92 93 94 95 96 97 98 99 100 101 102 103 104 105 106 107 108 109 110 111 112 113 114 115 116 117 118 119 120 121 122 123 124 125 126 127 128 129 130 131 132 133 134 135 136 137 138 139 140 141 142 143 144 145 146 147 148 149 150 151 152 153 154 155 156 157 158 159 160 161 162 163 164 165 166 167 168 169 170 171 172 173 174 175 176 177 178 179 180 181 182 183 184 185 186 187 188 189 190 191 192 193 194 195 196 197 198 199 200 
Z_COORDINATES 1 double
0
POINT_DATA 40000
SCALARS rho double 1
LOOKUP_TABLE default
0.448074 0.447929 0.447729 0.447512 0.447295 0.447086 0.446884 0.44669 0.446501 0.446314 0.446126 0.445937 0.445744 0.445552 0.445359 0.445173 0.444998 0.444848 0.444734 0.44468 0.444711 0.444866 0.445193 0.445762 0.446659 0.448007 0.449961 0.452736 0.456609 0.461959 0.469276 0.479223 0.492657 0.51071 0.534824 0.56682 0.608872 0.663421 0.73281 0.818641 0.920686 1.03576 1.15709 1.27531 1.381 1.46769 1.53341 1.58009 1.61163 1.63224 1.64545 1.65387 1.65928 1.66283 1.66526 1.66702 1.66839 1.66954 1.67057 1.67155 1.67251 1.67349 1.67448 1.6755 1.67654 1.67762 1.67872 1.67986 1.681 1.68216 1.68332 1.68449 1.68565 1.6868 1.68793 1.68905 1.69012 1.69117 1.69217 1.69314 1.69406 1.69493 1.69574 1.69652 1.69723 1.69789 1.69849 1.69906 1.69956 1.70001 1.70041 1.70078 1.70108 1.70135 1.70157 1.70176 1.70189 1.702 1.70205 1.70208 1.70205 1.702 1.70189 1.70176 1.70157 1.70136 1.70109 1.70078 1.70042 1.70002 1.69956 1.69906 1.6985 1.6979 1.69724 1.69653 1.69576 1.69495 1.69407 1.69316 1.6922 1.6912 1.69015 1.68907 1.68796 1.68683 1.68568 1.68452 1.68335 1.68219 1.68103 1.67989 1.67876 1.67766 1.67657 1.67553 1.6745 1.67351 1.67253 1.67156 1.67058 1.66954 1.66838 1.66701 1.66524 1.66279 1.65922 1.65378 1.6453 1.63201 1.61128 1.57956 1.53264 1.4666 1.37958 1.27359 1.15516 1.03375 0.918714 0.816786 0.731108 0.661873 0.60746 0.565521 0.533614 0.509569 0.491569 0.478178 0.468268 0.460983 0.455665 0.451826 0.449086 0.447171 0.445865 0.445014 0.444494 0.44422 0.444122 0.44415 0.444266 0.444442 0.444656 0.444894 0.445142 0.445395 0.445645 0.44589 0.446128 0.446358 0.446581 0.446799 0.447014 0.447229 0.447446 0.447667 0.44789 0.448111 0.448312 0.448457 0.447889 0.447778 0.447607 0.447411 0.447209 0.447011 0.446816 0.446629 0.446443 0.44626 0.446075 0.44589 0.4457 0.445511 0.445321 0.445139 0.444967 0.44482 0.444709 0.444658 0.44469 0.444848 0.445174 0.445744 0.446637 0.447981 0.449924 0.452686 0.456537 0.461859 0.469134 0.479025 0.492378 0.510325 0.534291 0.566095 0.607895 0.662133 0.73115 0.81658 0.918242 1.03304 1.15429 1.27268 1.37873 1.46591 1.53212 1.57922 1.61106 1.6319 1.64525 1.65377 1.65923 1.66283 1.66527 1.66705 1.66842 1.66959 1.67062 1.67161 1.67257 1.67355 1.67453 1.67556 1.6766 1.67769 1.67878 1.67991 1.68105 1.68221 1.68336 1.68453 1.68568 1.68684 1.68795 1.68906 1.69013 1.69118 1.69217 1.69313 1.69404 1.69491 1.69571 1.69648 1.69718 1.69785 1.69844 1.699 1.69949 1.69995 1.70035 1.70071 1.70101 1.70129 1.7015 1.70169 1.70182 1.70192 1.70197 1.702 1.70197 1.70192 1.70182 1.70169 1.7015 1.70129 1.70102 1.70072 1.70035 1.69996 1.6995 1.69901 1.69845 1.69786 1.69719 1.6965 1.69573 1.69493 1.69406 1.69315 1.69219 1.6912 1.69015 1.68909 1.68798 1.68687 1.68571 1.68457 1.6834 1.68224 1.68108 1.67995 1.67881 1.67772 1.67663 1.67559 1.67456 1.67357 1.67258 1.67162 1.67062 1.66959 1.66842 1.66704 1.66525 1.66278 1.65917 1.65367 1.6451 1.63167 1.61071 1.57868 1.53132 1.4648 1.37728 1.27093 1.15234 1.03101 0.916259 0.814718 0.729446 0.660586 0.606488 0.564802 0.533088 0.509191 0.491299 0.477989 0.468135 0.460893 0.455604 0.451786 0.449059 0.447154 0.445852 0.445005 0.444485 0.444211 0.44411 0.444137 0.444248 0.444422 0.444631 0.444866 0.44511 0.44536 0.445605 0.445848 0.446081 0.446308 0.446527 0.446742 0.446951 0.447161 0.44737 0.447581 0.447789 0.44799 0.448162 0.448274 0.447609 0.447528 0.447392 0.447228 0.447051 0.446872 0.446692 0.446516 0.44634 0.446165 0.445986 0.445808 0.445624 0.445441 0.445256 0.44508 0.444913 0.444772 0.444665 0.444619 0.444654 0.444813 0.445139 0.445706 0.446592 0.447924 0.449848 0.452582 0.456392 0.461656 0.468848 0.478626 0.491823 0.509558 0.533241 0.56467 0.605986 0.659617 0.727915 0.812561 0.91348 1.02773 1.1488 1.26747 1.37421 1.46232 1.52949 1.57741 1.60989 1.63117 1.64481 1.65352 1.6591 1.66277 1.66526 1.66707 1.66846 1.66964 1.67068 1.67167 1.67264 1.67362 1.67461 1.67564 1.67668 1.67776 1.67886 1.67998 1.68112 1.68227 1.68342 1.68458 1.68572 1.68687 1.68798 1.68908 1.69013 1.69117 1.69215 1.69311 1.694 1.69486 1.69566 1.69642 1.69711 1.69777 1.69836 1.69892 1.6994 1.69986 1.70025 1.70061 1.70091 1.70118 1.70139 1.70157 1.7017 1.70181 1.70186 1.70189 1.70186 1.70181 1.7017 1.70158 1.70139 1.70118 1.70091 1.70061 1.70025 1.69986 1.69941 1.69892 1.69837 1.69778 1.69713 1.69644 1.69568 1.69488 1.69402 1.69313 1.69217 1.69119 1.69016 1.6891 1.68801 1.6869 1.68575 1.68461 1.68345 1.68231 1.68115 1.68002 1.67889 1.67779 1.67671 1.67567 1.67463 1.67364 1.67265 1.67168 1.67068 1.66964 1.66846 1.66706 1.66524 1.66273 1.65903 1.65342 1.64466 1.63092 1.60952 1.57685 1.52866 1.46118 1.37272 1.26568 1.14681 1.02568 0.911479 0.810692 0.726209 0.658073 0.604584 0.563385 0.532048 0.508436 0.490756 0.477603 0.467863 0.460705 0.455474 0.451698 0.448999 0.447114 0.445824 0.444983 0.444466 0.444192 0.444088 0.444112 0.444218 0.444387 0.444589 0.444818 0.445055 0.445298 0.445537 0.445773 0.445999 0.44622 0.446431 0.446638 0.446838 0.447036 0.44723 0.447422 0.447607 0.447777 0.447914 0.447995 0.447278 0.447221 0.447118 0.446987 0.446839 0.446683 0.446523 0.446363 0.4462 0.446037 0.445868 0.445698 0.445523 0.445348 0.445171 0.445003 0.444843 0.444709 0.444608 0.444567 0.444604 0.444765 0.445089 0.44565 0.446525 0.447838 0.449732 0.452424 0.456171 0.461348 0.46842 0.478031 0.491001 0.508429 0.5317 0.562586 0.603199 0.655953 0.723207 0.806709 0.906529 1.01995 1.14072 1.25975 1.36747 1.45692 1.52549 1.57463 1.60806 1.63001 1.6441 1.6531 1.65887 1.66265 1.66521 1.66707 1.66849 1.66968 1.67073 1.67173 1.6727 1.67369 1.67468 1.67571 1.67675 1.67783 1.67892 1.68005 1.68117 1.68232 1.68346 1.68462 1.68575 1.68688 1.68798 1.68907 1.69012 1.69115 1.69212 1.69306 1.69395 1.6948 1.69559 1.69634 1.69703 1.69768 1.69826 1.69881 1.69929 1.69974 1.70013 1.70049 1.70078 1.70105 1.70126 1.70144 1.70157 1.70168 1.70172 1.70175 1.70172 1.70168 1.70157 1.70144 1.70126 1.70105 1.70078 1.70049 1.70013 1.69975 1.6993 1.69882 1.69827 1.69769 1.69704 1.69636 1.6956 1.69482 1.69397 1.69308 1.69214 1.69117 1.69015 1.6891 1.68801 1.68691 1.68578 1.68465 1.6835 1.68235 1.6812 1.68008 1.67895 1.67786 1.67678 1.67573 1.6747 1.67371 1.67272 1.67174 1.67073 1.66968 1.66848 1.66705 1.66518 1.6626 1.65879 1.65299 1.64393 1.62975 1.60766 1.57403 1.52462 1.45572 1.36592 1.2579 1.13868 1.01787 0.904509 0.804832 0.721501 0.654414 0.601806 0.561312 0.53052 0.507321 0.489949 0.477024 0.467452 0.460415 0.455272 0.451559 0.448903 0.447048 0.445776 0.444948 0.444436 0.444164 0.444058 0.444078 0.444178 0.44434 0.444535 0.444756 0.444984 0.445219 0.445448 0.445675 0.445892 0.446103 0.446303 0.446498 0.446685 0.446867 0.447042 0.447211 0.447367 0.447504 0.447609 0.447668 0.446924 0.446885 0.44681 0.446709 0.44659 0.446461 0.446323 0.446181 0.446034 0.445884 0.445728 0.44557 0.445405 0.44524 0.445073 0.444913 0.444761 0.444635 0.44454 0.444504 0.444544 0.444705 0.445025 0.445577 0.446434 0.447721 0.449576 0.45221 0.455877 0.46094 0.467854 0.47725 0.489928 0.506961 0.529704 0.559894 0.599606 0.651232 0.717141 0.799158 0.897533 1.00984 1.13014 1.24956 1.35849 1.44967 1.52006 1.57082 1.60552 1.62837 1.64308 1.65249 1.6585 1.66245 1.66511 1.66702 1.66848 1.66969 1.67076 1.67177 1.67275 1.67374 1.67473 1.67576 1.6768 1.67787 1.67896 1.68008 1.6812 1.68235 1.68348 1.68463 1.68575 1.68688 1.68797 1.68905 1.69008 1.6911 1.69206 1.693 1.69387 1.69472 1.6955 1.69624 1.69692 1.69757 1.69814 1.69869 1.69917 1.69961 1.7 1.70035 1.70064 1.70091 1.70112 1.7013 1.70143 1.70153 1.70158 1.70161 1.70158 1.70153 1.70143 1.7013 1.70112 1.70091 1.70065 1.70036 1.7 1.69962 1.69917 1.6987 1.69816 1.69758 1.69694 1.69626 1.69551 1.69474 1.69389 1.69302 1.69209 1.69112 1.69011 1.68908 1.688 1.68691 1.68578 1.68466 1.68351 1.68238 1.68123 1.68011 1.67899 1.6779 1.67682 1.67578 1.67475 1.67375 1.67276 1.67178 1.67076 1.66969 1.66847 1.667 1.66507 1.66239 1.65842 1.65236 1.6429 1.62809 1.60508 1.57018 1.51913 1.4484 1.35687 1.24765 1.12805 1.00772 0.895495 0.797275 0.715437 0.6497 0.598224 0.558632 0.528538 0.505868 0.488893 0.476262 0.466905 0.460027 0.454998 0.451367 0.448769 0.446954 0.445709 0.444897 0.444394 0.444126 0.44402 0.444036 0.444131 0.444285 0.444472 0.444683 0.444901 0.445126 0.445345 0.445561 0.445766 0.445965 0.446153 0.446334 0.446504 0.446668 0.446821 0.446964 0.447091 0.447199 0.447276 0.447317 0.446565 0.446539 0.446487 0.446413 0.446321 0.446216 0.446101 0.44598 0.44585 0.445716 0.445574 0.445428 0.445275 0.445122 0.444964 0.444814 0.444671 0.444553 0.444464 0.444433 0.444475 0.444634 0.444948 0.445486 0.446322 0.447576 0.449381 0.451945 0.455512 0.460437 0.467162 0.476299 0.488625 0.505185 0.527296 0.556652 0.595286 0.645558 0.709843 0.790053 0.886644 0.997531 1.11716 1.23696 1.34728 1.44051 1.51314 1.56592 1.60221 1.62623 1.64172 1.65164 1.65799 1.66214 1.66493 1.66692 1.66843 1.66967 1.67075 1.67178 1.67276 1.67375 1.67474 1.67577 1.67681 1.67788 1.67897 1.68008 1.6812 1.68234 1.68346 1.6846 1.68572 1.68684 1.68792 1.68899 1.69002 1.69103 1.69198 1.69291 1.69378 1.69462 1.69539 1.69613 1.6968 1.69744 1.69802 1.69856 1.69903 1.69948 1.69986 1.70021 1.7005 1.70077 1.70097 1.70116 1.70128 1.70139 1.70143 1.70146 1.70144 1.70139 1.70128 1.70116 1.70098 1.70077 1.7005 1.70021 1.69986 1.69948 1.69904 1.69857 1.69803 1.69746 1.69682 1.69615 1.69541 1.69464 1.6938 1.69293 1.69201 1.69105 1.69005 1.68902 1.68795 1.68687 1.68575 1.68463 1.6835 1.68237 1.68123 1.68011 1.679 1.67791 1.67683 1.67579 1.67476 1.67377 1.67277 1.67178 1.67075 1.66967 1.66841 1.6669 1.66489 1.66208 1.6579 1.65151 1.64152 1.62591 1.60174 1.56522 1.51214 1.43916 1.34558 1.23498 1.11502 0.995378 0.884593 0.788168 0.708145 0.644036 0.593916 0.555404 0.526144 0.504108 0.487607 0.475328 0.466232 0.459544 0.454654 0.451123 0.448597 0.446831 0.445621 0.444831 0.444341 0.444079 0.443974 0.443988 0.444077 0.444225 0.444402 0.444604 0.444812 0.445025 0.445232 0.445436 0.445629 0.445814 0.445987 0.446152 0.446305 0.446449 0.446579 0.446698 0.446799 0.44688 0.446935 0.446962 0.446211 0.446196 0.446163 0.446112 0.446043 0.445962 0.445869 0.445767 0.445656 0.445538 0.445411 0.445279 0.445138 0.444996 0.44485 0.44471 0.444576 0.444465 0.444383 0.444355 0.444398 0.444554 0.444858 0.44538 0.446189 0.447403 0.44915 0.451631 0.455082 0.459848 0.466354 0.475193 0.487117 0.503135 0.524523 0.552925 0.590323 0.639039 0.701449 0.779552 0.874028 0.983171 1.1019 1.22198 1.33379 1.42937 1.50463 1.55983 1.59806 1.6235 1.63998 1.65055 1.65731 1.66172 1.66467 1.66676 1.66833 1.66961 1.67071 1.67175 1.67274 1.67373 1.67472 1.67575 1.67679 1.67786 1.67894 1.68005 1.68116 1.68229 1.68341 1.68454 1.68565 1.68676 1.68784 1.6889 1.68992 1.69093 1.69187 1.6928 1.69366 1.69449 1.69526 1.696 1.69667 1.6973 1.69787 1.69841 1.69888 1.69933 1.69971 1.70006 1.70035 1.70061 1.70082 1.701 1.70113 1.70124 1.70128 1.70131 1.70128 1.70124 1.70113 1.70101 1.70082 1.70062 1.70035 1.70006 1.69971 1.69934 1.69889 1.69842 1.69788 1.69732 1.69668 1.69601 1.69528 1.69451 1.69368 1.69282 1.6919 1.69095 1.68995 1.68893 1.68787 1.68679 1.68568 1.68457 1.68344 1.68232 1.68119 1.68008 1.67896 1.67788 1.67681 1.67577 1.67474 1.67375 1.67275 1.67175 1.67071 1.6696 1.66831 1.66674 1.66463 1.66165 1.65721 1.6504 1.63976 1.62316 1.59755 1.55907 1.50356 1.42794 1.33201 1.21992 1.09971 0.980992 0.871967 0.77767 0.69976 0.63753 0.588967 0.551692 0.523386 0.502074 0.486115 0.47424 0.465443 0.458974 0.454245 0.450831 0.448389 0.446682 0.445512 0.444749 0.444276 0.444023 0.443921 0.443934 0.444019 0.44416 0.444329 0.444521 0.444718 0.444919 0.445114 0.445306 0.445484 0.445656 0.445813 0.445962 0.446096 0.44622 0.446329 0.446424 0.446501 0.44656 0.446597 0.446614 0.445872 0.445866 0.445847 0.445815 0.445767 0.445707 0.445634 0.445552 0.445457 0.445356 0.445244 0.445126 0.444998 0.444868 0.444733 0.444603 0.444478 0.444375 0.444297 0.444272 0.444315 0.444465 0.444758 0.44526 0.446038 0.447205 0.448885 0.451273 0.454594 0.459181 0.465444 0.473953 0.485429 0.500847 0.521433 0.548779 0.584806 0.631789 0.692098 0.767816 0.859855 0.966922 1.08445 1.20466 1.31801 1.41617 1.49442 1.55244 1.59299 1.62014 1.63781 1.64917 1.65644 1.66117 1.66432 1.66654 1.66817 1.6695 1.67063 1.67168 1.67268 1.67367 1.67467 1.67569 1.67672 1.67779 1.67886 1.67997 1.68107 1.6822 1.68332 1.68444 1.68555 1.68665 1.68772 1.68878 1.68979 1.69079 1.69173 1.69265 1.69351 1.69434 1.69511 1.69584 1.69651 1.69715 1.69772 1.69825 1.69873 1.69917 1.69955 1.6999 1.70019 1.70046 1.70067 1.70085 1.70098 1.70108 1.70113 1.70116 1.70113 1.70108 1.70098 1.70085 1.70067 1.70046 1.7002 1.69991 1.69956 1.69918 1.69874 1.69826 1.69773 1.69716 1.69653 1.69586 1.69513 1.69436 1.69353 1.69268 1.69176 1.69082 1.68982 1.68881 1.68775 1.68668 1.68558 1.68447 1.68335 1.68223 1.6811 1.68 1.67889 1.67782 1.67675 1.67571 1.67468 1.67369 1.67268 1.67168 1.67063 1.66949 1.66815 1.6665 1.66427 1.66109 1.65632 1.649 1.63756 1.61976 1.59242 1.55161 1.49326 1.41464 1.31614 1.20254 1.08222 0.964721 0.857792 0.765943 0.690424 0.630296 0.583466 0.547562 0.520313 0.499802 0.484444 0.473017 0.464551 0.458327 0.453778 0.450494 0.448146 0.446507 0.445384 0.444652 0.4442 0.443959 0.443862 0.443875 0.443957 0.444092 0.444253 0.444436 0.444622 0.444812 0.444995 0.445173 0.445338 0.445494 0.445636 0.445768 0.445885 0.44599 0.446078 0.446153 0.44621 0.446251 0.446273 0.446281 0.445553 0.445553 0.445547 0.44553 0.445499 0.445458 0.445403 0.445338 0.445261 0.445175 0.445077 0.444973 0.444858 0.44474 0.444615 0.444495 0.444379 0.444282 0.44421 0.444186 0.444226 0.44437 0.444648 0.445127 0.445869 0.446985 0.448592 0.450876 0.454056 0.458449 0.464447 0.472597 0.48359 0.498358 0.518079 0.544282 0.578824 0.623923 0.681934 0.755015 0.844309 0.948953 1.06496 1.18506 1.29989 1.4008 1.48238 1.54363 1.58687 1.61605 1.63514 1.64745 1.65534 1.66047 1.66386 1.66623 1.66796 1.66934 1.6705 1.67157 1.67257 1.67358 1.67457 1.67559 1.67662 1.67768 1.67875 1.67985 1.68095 1.68207 1.68318 1.6843 1.6854 1.6865 1.68756 1.68862 1.68963 1.69062 1.69156 1.69248 1.69334 1.69416 1.69493 1.69566 1.69633 1.69697 1.69754 1.69808 1.69855 1.699 1.69938 1.69973 1.70003 1.70029 1.7005 1.70069 1.70082 1.70092 1.70097 1.701 1.70097 1.70092 1.70082 1.70069 1.70051 1.7003 1.70003 1.69974 1.69939 1.69901 1.69856 1.69809 1.69755 1.69698 1.69635 1.69568 1.69495 1.69418 1.69336 1.6925 1.69159 1.69065 1.68965 1.68864 1.68759 1.68653 1.68543 1.68433 1.68321 1.6821 1.68098 1.67988 1.67878 1.6777 1.67664 1.67561 1.67458 1.67359 1.67258 1.67157 1.6705 1.66933 1.66794 1.66619 1.6638 1.66038 1.65521 1.64726 1.63486 1.61563 1.58624 1.54272 1.48113 1.39918 1.29794 1.18287 1.06269 0.946739 0.842251 0.753156 0.680279 0.622449 0.577502 0.543082 0.516975 0.497329 0.482621 0.471678 0.463571 0.457613 0.453259 0.450118 0.447874 0.446309 0.445238 0.444543 0.444114 0.443887 0.443798 0.443813 0.443893 0.444023 0.444177 0.444351 0.444526 0.444705 0.444876 0.445041 0.445192 0.445335 0.445462 0.445578 0.445677 0.445765 0.445836 0.445892 0.445932 0.445958 0.445968 0.44597 0.445258 0.445263 0.445266 0.445262 0.445246 0.44522 0.445181 0.445132 0.44507 0.444999 0.444915 0.444824 0.444721 0.444614 0.4445 0.444389 0.444281 0.44419 0.444121 0.444098 0.444135 0.444269 0.444531 0.444984 0.445687 0.446746 0.448273 0.450447 0.453475 0.457661 0.463377 0.471146 0.481626 0.495706 0.51451 0.539501 0.572465 0.615556 0.671101 0.74132 0.827578 0.929447 1.04356 1.16325 1.27943 1.38316 1.46836 1.53323 1.57956 1.61112 1.63191 1.64535 1.65399 1.65959 1.66328 1.66584 1.66768 1.66913 1.67033 1.67142 1.67243 1.67344 1.67443 1.67545 1.67647 1.67753 1.67859 1.67968 1.68078 1.68189 1.683 1.68411 1.68521 1.6863 1.68736 1.68841 1.68942 1.69042 1.69136 1.69227 1.69313 1.69396 1.69473 1.69546 1.69613 1.69677 1.69735 1.69789 1.69837 1.69881 1.6992 1.69955 1.69985 1.70012 1.70033 1.70052 1.70065 1.70075 1.7008 1.70083 1.7008 1.70075 1.70065 1.70052 1.70033 1.70012 1.69986 1.69956 1.69921 1.69882 1.69838 1.6979 1.69736 1.69678 1.69615 1.69548 1.69474 1.69398 1.69315 1.69229 1.69138 1.69044 1.68945 1.68844 1.68739 1.68633 1.68524 1.68414 1.68303 1.68192 1.68081 1.67971 1.67862 1.67755 1.67649 1.67547 1.67444 1.67345 1.67244 1.67142 1.67032 1.66911 1.66765 1.66579 1.66322 1.65949 1.65385 1.64514 1.63159 1.61066 1.57887 1.53224 1.46701 1.38144 1.27738 1.161 1.04126 0.92723 0.825532 0.739482 0.669468 0.614104 0.571163 0.538319 0.513422 0.494693 0.480672 0.470243 0.462518 0.456842 0.452696 0.449708 0.447575 0.446091 0.445078 0.444422 0.44402 0.44381 0.44373 0.443749 0.443828 0.443954 0.444102 0.444267 0.444433 0.444601 0.44476 0.444913 0.445052 0.44518 0.445293 0.445394 0.445478 0.44555 0.445605 0.445647 0.445672 0.445685 0.445687 0.445684 0.444989 0.444999 0.445009 0.445014 0.445011 0.444998 0.444972 0.444937 0.444888 0.444831 0.44476 0.44468 0.444589 0.444493 0.444389 0.444287 0.444185 0.444099 0.444033 0.44401 0.444041 0.444164 0.444408 0.444832 0.445493 0.446491 0.447934 0.449992 0.45286 0.456828 0.46225 0.469621 0.479565 0.492928 0.510775 0.534502 0.565817 0.6068 0.659741 0.726902 0.809854 0.908599 1.02042 1.13931 1.25659 1.36314 1.45218 1.52106 1.57092 1.60524 1.628 1.64281 1.65233 1.65851 1.66256 1.66534 1.66732 1.66885 1.6701 1.67122 1.67225 1.67326 1.67425 1.67526 1.67628 1.67733 1.67839 1.67948 1.68056 1.68167 1.68277 1.68388 1.68497 1.68606 1.68712 1.68817 1.68918 1.69017 1.69111 1.69203 1.69289 1.69372 1.69449 1.69523 1.6959 1.69655 1.69712 1.69767 1.69815 1.6986 1.69899 1.69935 1.69965 1.69993 1.70014 1.70033 1.70046 1.70057 1.70062 1.70065 1.70062 1.70057 1.70046 1.70033 1.70015 1.69993 1.69966 1.69936 1.699 1.69861 1.69816 1.69768 1.69714 1.69656 1.69592 1.69524 1.69451 1.69374 1.69291 1.69205 1.69114 1.6902 1.68921 1.6882 1.68715 1.68609 1.685 1.68391 1.6828 1.6817 1.68059 1.6795 1.67841 1.67736 1.6763 1.67528 1.67426 1.67327 1.67225 1.67122 1.67009 1.66883 1.66729 1.66529 1.66249 1.6584 1.65218 1.64257 1.62765 1.60471 1.57016 1.51998 1.45074 1.36133 1.25447 1.13701 1.0181 0.906388 0.807829 0.725091 0.658135 0.605373 0.564536 0.533338 0.509703 0.491929 0.478626 0.468732 0.461405 0.456025 0.452098 0.44927 0.447256 0.445856 0.444904 0.444291 0.443918 0.443727 0.443658 0.443683 0.443763 0.443886 0.444028 0.444186 0.444344 0.444502 0.44465 0.444791 0.444918 0.445033 0.445133 0.44522 0.445291 0.445349 0.445391 0.445419 0.445434 0.445437 0.445433 0.445426 0.444749 0.444761 0.444777 0.44479 0.444795 0.444793 0.444779 0.444756 0.444719 0.444673 0.444614 0.444546 0.444465 0.444379 0.444283 0.444188 0.444093 0.444011 0.443947 0.443921 0.443946 0.444057 0.444281 0.444674 0.44529 0.446225 0.44758 0.449516 0.452218 0.455961 0.461079 0.46804 0.477433 0.490057 0.506921 0.529346 0.558961 0.597764 0.647991 0.711931 0.791335 0.886615 0.995706 1.11336 1.23139 1.34065 1.43368 1.50692 1.56074 1.59823 1.62332 1.63973 1.65032 1.65719 1.66168 1.66473 1.66688 1.66851 1.66982 1.67097 1.67202 1.67304 1.67403 1.67504 1.67605 1.6771 1.67814 1.67922 1.6803 1.6814 1.6825 1.6836 1.68469 1.68578 1.68683 1.68788 1.68889 1.68988 1.69083 1.69174 1.69261 1.69344 1.69422 1.69496 1.69564 1.69629 1.69688 1.69743 1.69792 1.69837 1.69877 1.69913 1.69944 1.69972 1.69994 1.70013 1.70026 1.70037 1.70042 1.70045 1.70042 1.70037 1.70026 1.70013 1.69994 1.69972 1.69945 1.69914 1.69878 1.69838 1.69793 1.69744 1.69689 1.69631 1.69566 1.69498 1.69424 1.69346 1.69263 1.69177 1.69085 1.68991 1.68892 1.68791 1.68686 1.6858 1.68472 1.68363 1.68253 1.68143 1.68033 1.67925 1.67817 1.67712 1.67607 1.67505 1.67404 1.67304 1.67202 1.67097 1.66981 1.66849 1.66684 1.66467 1.6616 1.65707 1.65015 1.63947 1.62293 1.59765 1.5599 1.50575 1.43214 1.33874 1.2292 1.11102 0.993381 0.884421 0.789339 0.710152 0.646416 0.596363 0.557703 0.528201 0.505866 0.489073 0.476508 0.467165 0.460249 0.455173 0.451472 0.448811 0.446919 0.445608 0.444721 0.444153 0.443812 0.443642 0.443585 0.443616 0.443698 0.44382 0.443958 0.44411 0.44426 0.444409 0.444547 0.444677 0.444792 0.444897 0.444984 0.44506 0.445119 0.445165 0.445195 0.445214 0.445219 0.445215 0.445205 0.445196 0.444537 0.444552 0.444571 0.444589 0.444602 0.444608 0.444604 0.44459 0.444564 0.444528 0.444479 0.444421 0.444349 0.444272 0.444184 0.444096 0.444006 0.443928 0.443864 0.443835 0.443853 0.44395 0.444151 0.444511 0.445081 0.44595 0.447215 0.449025 0.451558 0.455071 0.459879 0.466422 0.475255 0.487128 0.502992 0.524094 0.551976 0.588549 0.635985 0.696574 0.772218 0.863711 0.969637 1.08554 1.20389 1.3156 1.41268 1.49058 1.5488 1.58991 1.61771 1.63602 1.64789 1.65558 1.6606 1.66399 1.66634 1.6681 1.66949 1.67068 1.67174 1.67277 1.67376 1.67477 1.67578 1.67682 1.67786 1.67893 1.68 1.68109 1.68218 1.68328 1.68436 1.68544 1.6865 1.68755 1.68856 1.68955 1.6905 1.69142 1.69229 1.69313 1.69391 1.69466 1.69535 1.696 1.69659 1.69715 1.69765 1.69811 1.69852 1.69889 1.6992 1.69948 1.6997 1.6999 1.70004 1.70015 1.7002 1.70023 1.7002 1.70015 1.70004 1.6999 1.69971 1.69948 1.6992 1.69889 1.69852 1.69812 1.69766 1.69716 1.69661 1.69602 1.69536 1.69468 1.69393 1.69315 1.69231 1.69144 1.69052 1.68958 1.68858 1.68758 1.68653 1.68547 1.68439 1.68331 1.68221 1.68112 1.68003 1.67895 1.67788 1.67684 1.6758 1.67479 1.67377 1.67278 1.67174 1.67067 1.66947 1.66807 1.6663 1.66392 1.66051 1.65545 1.64769 1.63573 1.61728 1.58927 1.54788 1.48931 1.41103 1.3136 1.20163 1.08318 0.967318 0.861545 0.77026 0.694833 0.634444 0.587177 0.550742 0.522968 0.501953 0.486158 0.474343 0.46556 0.459062 0.454297 0.450826 0.448336 0.446569 0.445351 0.44453 0.44401 0.443702 0.443554 0.443512 0.44355 0.443636 0.443757 0.443892 0.444038 0.444181 0.444323 0.444452 0.444573 0.444678 0.444772 0.444849 0.444914 0.444963 0.444999 0.44502 0.445031 0.445029 0.44502 0.445007 0.444996 0.444354 0.44437 0.444391 0.444414 0.444432 0.444445 0.444448 0.444442 0.444425 0.444397 0.444357 0.444307 0.444244 0.444174 0.444094 0.444011 0.443925 0.443849 0.443784 0.443752 0.443761 0.443843 0.444021 0.444348 0.444869 0.445671 0.446842 0.448526 0.450888 0.454168 0.458663 0.464785 0.473053 0.484171 0.499029 0.518798 0.544935 0.579253 0.623847 0.680989 0.752699 0.840111 0.942431 1.05604 1.17414 1.28795 1.389 1.4718 1.53485 1.58006 1.61101 1.63155 1.64494 1.65363 1.65929 1.66308 1.66569 1.66761 1.66908 1.67033 1.67142 1.67246 1.67346 1.67447 1.67547 1.67649 1.67753 1.67859 1.67965 1.68074 1.68182 1.68291 1.68399 1.68507 1.68612 1.68717 1.68818 1.68917 1.69012 1.69105 1.69192 1.69277 1.69356 1.69432 1.69501 1.69568 1.69628 1.69684 1.69735 1.69782 1.69823 1.69861 1.69893 1.69921 1.69944 1.69964 1.69978 1.6999 1.69995 1.69998 1.69995 1.6999 1.69979 1.69964 1.69945 1.69922 1.69893 1.69862 1.69824 1.69783 1.69736 1.69686 1.69629 1.69569 1.69503 1.69433 1.69358 1.69279 1.69195 1.69107 1.69015 1.6892 1.68821 1.6872 1.68615 1.6851 1.68402 1.68294 1.68184 1.68076 1.67968 1.67861 1.67755 1.67651 1.67548 1.67448 1.67347 1.67247 1.67142 1.67032 1.66906 1.66757 1.66564 1.66301 1.65919 1.65348 1.64472 1.63122 1.61052 1.57935 1.53384 1.47043 1.38724 1.28586 1.17184 1.05367 0.940133 0.837983 0.750786 0.679291 0.622342 0.577911 0.543724 0.517692 0.498005 0.483215 0.472153 0.463934 0.457857 0.453406 0.450168 0.44785 0.446211 0.445087 0.444334 0.443863 0.44359 0.443465 0.443439 0.443487 0.443576 0.443698 0.443831 0.443973 0.444111 0.444245 0.444366 0.444479 0.444575 0.44466 0.444729 0.444785 0.444825 0.444853 0.444867 0.444871 0.444864 0.444852 0.444836 0.444824 0.444199 0.444215 0.444238 0.444263 0.444286 0.444303 0.444312 0.444313 0.444302 0.444282 0.444249 0.444206 0.44415 0.444087 0.444012 0.443934 0.443852 0.443776 0.44371 0.443673 0.443672 0.443738 0.443893 0.444184 0.444656 0.445389 0.446468 0.448024 0.450213 0.45326 0.457442 0.463143 0.470848 0.481213 0.495069 0.513511 0.537903 0.569962 0.611694 0.66533 0.73297 0.816041 0.914334 1.02507 1.1423 1.25768 1.36249 1.45033 1.51862 1.56843 1.603 1.62617 1.64137 1.65126 1.65771 1.66199 1.66491 1.66701 1.66861 1.66992 1.67105 1.67211 1.67311 1.67412 1.67511 1.67613 1.67715 1.6782 1.67926 1.68033 1.68141 1.68249 1.68356 1.68464 1.68569 1.68674 1.68775 1.68875 1.6897 1.69063 1.69151 1.69236 1.69316 1.69393 1.69463 1.6953 1.69592 1.69649 1.69701 1.69749 1.69791 1.69829 1.69862 1.69891 1.69915 1.69935 1.69949 1.69961 1.69967 1.6997 1.69967 1.69961 1.6995 1.69935 1.69915 1.69891 1.69862 1.6983 1.69791 1.6975 1.69702 1.6965 1.69593 1.69532 1.69465 1.69394 1.69318 1.69239 1.69153 1.69065 1.68973 1.68877 1.68778 1.68677 1.68572 1.68467 1.68359 1.68252 1.68143 1.68036 1.67928 1.67823 1.67718 1.67615 1.67513 1.67413 1.67312 1.67211 1.67105 1.66991 1.66859 1.66698 1.66486 1.66191 1.65759 1.65109 1.64112 1.6258 1.60245 1.56764 1.51751 1.44886 1.36064 1.25552 1.13996 1.0227 0.91207 0.813962 0.731108 0.663678 0.610229 0.568652 0.536717 0.512423 0.494061 0.48027 0.469959 0.462303 0.456647 0.452509 0.449505 0.44736 0.44585 0.444819 0.444136 0.443715 0.443478 0.443378 0.443368 0.443426 0.443521 0.443644 0.443776 0.443915 0.444048 0.444176 0.444291 0.444396 0.444485 0.444562 0.444623 0.444672 0.444705 0.444727 0.444736 0.444735 0.444725 0.44471 0.444694 0.444681 0.444072 0.444087 0.444111 0.444138 0.444162 0.444183 0.444196 0.444202 0.444196 0.444182 0.444155 0.444119 0.444069 0.44401 0.44394 0.443866 0.443786 0.443711 0.443642 0.443599 0.443588 0.443637 0.443767 0.444022 0.444445 0.44511 0.446094 0.447523 0.44954 0.452356 0.456227 0.461512 0.46866 0.478281 0.491146 0.508275 0.530942 0.560758 0.599633 0.649737 0.713214 0.79173 0.885604 0.992875 1.10853 1.22484 1.33305 1.42594 1.49979 1.55472 1.59343 1.61969 1.63704 1.64838 1.65577 1.66066 1.66397 1.66631 1.66805 1.66945 1.67063 1.67171 1.67273 1.67373 1.67472 1.67573 1.67674 1.67778 1.67882 1.67989 1.68095 1.68203 1.6831 1.68417 1.68522 1.68626 1.68727 1.68827 1.68923 1.69017 1.69105 1.69191 1.69272 1.69349 1.69421 1.69489 1.69551 1.6961 1.69662 1.69711 1.69754 1.69793 1.69827 1.69857 1.69881 1.69902 1.69917 1.69929 1.69935 1.69938 1.69935 1.69929 1.69917 1.69902 1.69881 1.69857 1.69827 1.69794 1.69755 1.69712 1.69663 1.69611 1.69552 1.6949 1.69422 1.69351 1.69274 1.69193 1.69107 1.69019 1.68925 1.6883 1.6873 1.68629 1.68525 1.6842 1.68313 1.68206 1.68098 1.67992 1.67885 1.6778 1.67676 1.67575 1.67473 1.67374 1.67273 1.67171 1.67063 1.66943 1.66803 1.66627 1.66391 1.66058 1.65564 1.64819 1.63676 1.61928 1.59283 1.55385 1.49858 1.42436 1.3311 1.22262 1.10617 0.990528 0.883387 0.789708 0.711409 0.648135 0.598208 0.55948 0.52978 0.507206 0.490152 0.477349 0.467781 0.460681 0.455441 0.451614 0.448842 0.44687 0.445488 0.444552 0.443938 0.443568 0.443367 0.443292 0.4433 0.443368 0.44347 0.443596 0.443728 0.443865 0.443994 0.444117 0.444227 0.444326 0.444409 0.44448 0.444534 0.444577 0.444605 0.444622 0.444627 0.444623 0.444611 0.444595 0.444578 0.444566 0.44397 0.443986 0.444009 0.444036 0.444062 0.444084 0.4441 0.44411 0.444109 0.444099 0.444077 0.444045 0.444 0.443946 0.443879 0.443808 0.443729 0.443653 0.443581 0.443531 0.443508 0.44354 0.443645 0.443865 0.444238 0.444834 0.445725 0.447028 0.448876 0.451464 0.455029 0.459905 0.466505 0.475396 0.48729 0.503131 0.524104 0.551713 0.587761 0.634341 0.693606 0.767401 0.85651 0.959747 1.07307 1.18955 1.30061 1.39839 1.47805 1.53859 1.58202 1.61187 1.63178 1.64487 1.65341 1.65905 1.66283 1.66547 1.6674 1.66891 1.67015 1.67127 1.67229 1.6733 1.67429 1.67529 1.67629 1.67731 1.67835 1.6794 1.68045 1.68152 1.68258 1.68365 1.68469 1.68573 1.68674 1.68774 1.6887 1.68964 1.69054 1.6914 1.69222 1.693 1.69373 1.69442 1.69505 1.69565 1.69618 1.69668 1.69712 1.69752 1.69787 1.69817 1.69842 1.69864 1.69879 1.69891 1.69898 1.699 1.69898 1.69891 1.69879 1.69864 1.69843 1.69818 1.69787 1.69753 1.69713 1.69669 1.69619 1.69566 1.69506 1.69443 1.69374 1.69302 1.69224 1.69142 1.69056 1.68967 1.68873 1.68777 1.68677 1.68576 1.68472 1.68367 1.68261 1.68155 1.68048 1.67943 1.67837 1.67734 1.67631 1.6753 1.6743 1.67331 1.6723 1.67127 1.67014 1.66889 1.66737 1.66543 1.66277 1.65896 1.65327 1.64466 1.63147 1.6114 1.58134 1.53763 1.47674 1.39671 1.29858 1.18729 1.07071 0.957439 0.854352 0.765445 0.691861 0.632792 0.586378 0.550466 0.522966 0.50208 0.48631 0.474475 0.465636 0.459082 0.454251 0.450729 0.448186 0.446384 0.445129 0.444287 0.443743 0.443423 0.443258 0.44321 0.443235 0.443316 0.443425 0.443554 0.443687 0.443823 0.44395 0.444069 0.444174 0.444268 0.444346 0.444412 0.444462 0.4445 0.444524 0.444537 0.44454 0.444534 0.444521 0.444505 0.444488 0.444476 0.443894 0.443909 0.443931 0.443958 0.443984 0.444008 0.444025 0.444037 0.444039 0.444032 0.444014 0.443985 0.