# vtk DataFile Version 3.0
Immiscible displacement
ASCII
DATASET RECTILINEAR_GRID
DIMENSIONS 400 100 1
X_COORDINATES 400 double
1 2 3 4 5 6 7 8 9 10 11 12 13 14 15 16 17 18 19 20 21 22 23 24 25 26 27 28 29 30 31 32 33 34 35 36 37 38 39 40 41 42 43 44 45 46 47 48 49 50 51 52 53 54 55 56 57 58 59 60 61 62 63 64 65 66 67 68 69 70 71 72 73 74 75 76 77 78 79 80 81 82 83 84 85 86 87 88 89 90 91 92 93 94 95 96 97 98 99 100 101 102 103 104 105 106 107 108 109 110 111 112 113 114 115 116 117 118 119 120 121 122 123 124 125 126 127 128 129 130 131 132 133 134 135 136 137 138 139 140 141 142 143 144 145 146 147 148 149 150 151 152 153 154 155 156 157 158 159 160 161 162 163 164 165 166 167 168 169 170 171 172 173 174 175 176 177 178 179 180 181 182 183 184 185 186 187 188 189 190 191 192 193 194 195 196 197 198 199 200 201 202 203 204 205 206 207 208 209 210 211 212 213 214 215 216 217 218 219 220 221 222 223 224 225 226 227 228 229 230 231 232 233 234 235 236 237 238 239 240 241 242 243 244 245 246 247 248 249 250 251 252 253 254 255 256 257 258 259 260 261 262 263 264 265 266 267 268 269 270 271 272 273 274 275 276 277 278 279 280 281 282 283 284 285 286 287 288 289 290 291 292 293 294 295 296 297 298 299 300 301 302 303 304 305 306 307 308 309 310 311 312 313 314 315 316 317 318 319 320 321 322 323 324 325 326 327 328 329 330 331 332 333 334 335 336 337 338 339 340 341 342 343 344 345 346 347 348 349 350 351 352 353 354 355 356 357 358 359 360 361 362 363 364 365 366 367 368 369 370 371 372 373 374 375 376 377 378 379 380 381 382 383 384 385 386 387 388 389 390 391 392 393 394 395 396 397 398 399 400 
Y_COORDINATES 100 double
1 2 3 4 5 6 7 8 9 10 11 12 13 14 15 16 17 18 19 20 21 22 23 24 25 26 27 28 29 30 31 32 33 34 35 36 37 38 39 40 41 42 43 44 45 46 47 48 49 50 51 52 53 54 55 56 57 58 59 60 61 62 63 64 65 66 67 68 69 70 71 72 73 74 75 76 77 78 79 80 81 82 83 84 85 86 87 88 89 90 91 92 93 94 95 96 97 98 99 100 
Z_COORDINATES 1 double
0
POINT_DATA 40000
SCALARS rho double 1
LOOKUP_TABLE default
0.478719 0.478709 0.478696 0.47868 0.478664 0.478647 0.478631 0.478616 0.478601 0.478587 0.478573 0.47856 0.478547 0.478535 0.478524 0.478513 0.478502 0.478491 0.478481 0.478471 0.478462 0.478452 0.478443 0.478434 0.478425 0.478416 0.478407 0.478398 0.478389 0.47838 0.478372 0.478363 0.478354 0.478345 0.478337 0.478328 0.478319 0.47831 0.478302 0.478293 0.478284 0.478275 0.478266 0.478257 0.478248 0.478239 0.47823 0.478221 0.478212 0.478203 0.478194 0.478185 0.478175 0.478166 0.478157 0.478148 0.478138 0.478129 0.47812 0.47811 0.478101 0.478092 0.478082 0.478073 0.478063 0.478054 0.478045 0.478035 0.478026 0.478016 0.478007 0.477997 0.477988 0.477978 0.477969 0.477959 0.47795 0.47794 0.477931 0.477921 0.477912 0.477902 0.477893 0.477884 0.477874 0.477865 0.477855 0.477846 0.477837 0.477827 0.477818 0.477809 0.4778 0.47779 0.477781 0.477772 0.477763 0.477754 0.477745 0.477736 0.477727 0.477718 0.47771 0.477701 0.477692 0.477684 0.477675 0.477667 0.477659 0.477651 0.477643 0.477635 0.477628 0.47762 0.477613 0.477607 0.4776 0.477595 0.477589 0.477585 0.477582 0.47758 0.47758 0.477582 0.477587 0.477596 0.47761 0.477631 0.477661 0.477703 0.477761 0.47784 0.477946 0.47809 0.478282 0.47854 0.478884 0.479344 0.479958 0.480776 0.481867 0.483322 0.485261 0.487846 0.491292 0.495887 0.502014 0.510183 0.521068 0.53556 0.554821 0.580347 0.614011 0.658063 0.714996 0.787191 0.876195 0.981613 1.09991 1.22388 1.34377 1.45005 1.53648 1.60151 1.64741 1.67832 1.69848 1.71137 1.71952 1.72466 1.72789 1.72994 1.73123 1.73206 1.73258 1.73293 1.73315 1.7333 1.73339 1.73346 1.7335 1.73353 1.73355 1.73357 1.73358 1.73359 1.7336 1.7336 1.73361 1.73361 1.73362 1.73362 1.73362 1.73362 1.73362 1.73363 1.73363 1.73363 1.73363 1.73363 1.73363 1.73363 1.73363 1.73363 1.73363 1.73363 1.73362 1.73362 1.73362 1.73362 1.73361 1.73361 1.73361 1.7336 1.73359 1.73358 1.73356 1.73354 1.73351 1.73347 1.7334 1.73331 1.73316 1.73294 1.7326 1.73207 1.73124 1.72994 1.72789 1.72465 1.7195 1.71133 1.69841 1.6782 1.64722 1.60121 1.53606 1.44951 1.34313 1.22318 1.09922 0.98098 0.875653 0.786751 0.714654 0.657807 0.613827 0.58022 0.554739 0.535512 0.521047 0.510183 0.50203 0.495914 0.491328 0.487889 0.485309 0.483375 0.481923 0.480835 0.480019 0.479407 0.478948 0.478604 0.478347 0.478156 0.478013 0.477907 0.477829 0.477772 0.47773 0.477701 0.47768 0.477666 0.477658 0.477653 0.477651 0.477652 0.477654 0.477658 0.477663 0.477669 0.477675 0.477682 0.477689 0.477696 0.477704 0.477712 0.477721 0.477729 0.477738 0.477746 0.477755 0.477764 0.477773 0.477782 0.477791 0.477801 0.47781 0.477819 0.477829 0.477838 0.477848 0.477857 0.477867 0.477877 0.477886 0.477896 0.477906 0.477916 0.477925 0.477935 0.477945 0.477955 0.477965 0.477975 0.477984 0.477994 0.478004 0.478014 0.478024 0.478034 0.478044 0.478053 0.478063 0.478073 0.478083 0.478093 0.478103 0.478112 0.478122 0.478132 0.478142 0.478151 0.478161 0.478171 0.478181 0.47819 0.4782 0.478209 0.478219 0.478229 0.478238 0.478248 0.478257 0.478267 0.478276 0.478285 0.478295 0.478304 0.478313 0.478323 0.478332 0.478341 0.47835 0.478359 0.478368 0.478377 0.478386 0.478395 0.478404 0.478413 0.478422 0.478431 0.47844 0.478448 0.478457 0.478466 0.478474 0.478483 0.478492 0.478501 0.478509 0.478518 0.478527 0.478536 0.478545 0.478554 0.478563 0.478573 0.478582 0.478592 0.478602 0.478612 0.478622 0.478633 0.478644 0.478656 0.478668 0.47868 0.478693 0.478707 0.478721 0.478736 0.478751 0.478766 0.478782 0.478796 0.478809 0.478818 0.469072 0.469065 0.469053 0.469039 0.469024 0.469009 0.468994 0.468979 0.468965 0.468951 0.468938 0.468925 0.468913 0.468902 0.468891 0.46888 0.468869 0.468859 0.468849 0.46884 0.468831 0.468821 0.468812 0.468803 0.468795 0.468786 0.468777 0.468769 0.46876 0.468751 0.468743 0.468735 0.468726 0.468718 0.468709 0.468701 0.468692 0.468684 0.468675 0.468667 0.468658 0.468649 0.468641 0.468632 0.468623 0.468615 0.468606 0.468597 0.468588 0.468579 0.46857 0.468562 0.468553 0.468544 0.468535 0.468526 0.468517 0.468508 0.468499 0.468489 0.46848 0.468471 0.468462 0.468453 0.468444 0.468435 0.468425 0.468416 0.468407 0.468398 0.468389 0.468379 0.46837 0.468361 0.468352 0.468342 0.468333 0.468324 0.468315 0.468306 0.468296 0.468287 0.468278 0.468269 0.468259 0.46825 0.468241 0.468232 0.468223 0.468214 0.468205 0.468196 0.468187 0.468178 0.468169 0.46816 0.468151 0.468142 0.468134 0.468125 0.468116 0.468108 0.468099 0.468091 0.468082 0.468074 0.468066 0.468058 0.46805 0.468042 0.468034 0.468027 0.468019 0.468012 0.468005 0.467999 0.467992 0.467987 0.467982 0.467977 0.467974 0.467972 0.467972 0.467974 0.467979 0.467987 0.468001 0.468021 0.46805 0.46809 0.468145 0.468221 0.468324 0.468462 0.468647 0.468895 0.469226 0.469669 0.470259 0.471046 0.472094 0.473492 0.475355 0.477838 0.481147 0.485557 0.491435 0.499266 0.509694 0.523569 0.541994 0.566394 0.598549 0.640599 0.694933 0.763862 0.848973 0.950114 1.06425 1.18491 1.30296 1.40913 1.49687 1.56402 1.61219 1.64511 1.66685 1.68091 1.68988 1.69558 1.6992 1.7015 1.70296 1.7039 1.70451 1.7049 1.70516 1.70532 1.70544 1.70551 1.70557 1.7056 1.70563 1.70565 1.70566 1.70567 1.70568 1.70568 1.70569 1.70569 1.7057 1.7057 1.7057 1.7057 1.7057 1.70571 1.70571 1.70571 1.70571 1.70571 1.70571 1.70571 1.70571 1.70571 1.70571 1.70571 1.70571 1.7057 1.7057 1.7057 1.70569 1.70569 1.70568 1.70568 1.70567 1.70565 1.70564 1.70561 1.70558 1.70552 1.70545 1.70534 1.70517 1.70491 1.70452 1.70391 1.70297 1.7015 1.6992 1.69558 1.68986 1.68086 1.66677 1.64498 1.61198 1.56371 1.49645 1.40858 1.30233 1.18423 1.06359 0.949508 0.848456 0.763444 0.694608 0.640357 0.598374 0.566274 0.541917 0.523524 0.509675 0.499266 0.49145 0.485584 0.481182 0.47788 0.475403 0.473544 0.472149 0.471103 0.470317 0.469729 0.469288 0.468957 0.46871 0.468526 0.468389 0.468287 0.468212 0.468157 0.468117 0.468089 0.468069 0.468056 0.468047 0.468043 0.468042 0.468042 0.468045 0.468049 0.468053 0.468059 0.468065 0.468072 0.468079 0.468086 0.468094 0.468102 0.46811 0.468118 0.468126 0.468135 0.468143 0.468152 0.468161 0.46817 0.468179 0.468188 0.468197 0.468206 0.468215 0.468224 0.468234 0.468243 0.468252 0.468262 0.468271 0.468281 0.46829 0.4683 0.468309 0.468319 0.468328 0.468338 0.468348 0.468357 0.468367 0.468376 0.468386 0.468396 0.468405 0.468415 0.468424 0.468434 0.468444 0.468453 0.468463 0.468472 0.468482 0.468491 0.468501 0.468511 0.46852 0.468529 0.468539 0.468548 0.468558 0.468567 0.468576 0.468586 0.468595 0.468604 0.468614 0.468623 0.468632 0.468641 0.46865 0.46866 0.468669 0.468678 0.468687 0.468696 0.468705 0.468714 0.468723 0.468731 0.46874 0.468749 0.468758 0.468766 0.468775 0.468784 0.468792 0.468801 0.468809 0.468818 0.468826 0.468835 0.468843 0.468852 0.46886 0.468869 0.468877 0.468886 0.468894 0.468903 0.468912 0.46892 0.468929 0.468938 0.468948 0.468957 0.468967 0.468976 0.468987 0.468997 0.469008 0.469019 0.46903 0.469043 0.469055 0.469068 0.469082 0.469096 0.46911 0.469124 0.469139 0.469152 0.469163 0.46917 0.461771 0.461765 0.461756 0.461744 0.461731 0.461717 0.461703 0.461689 0.461676 0.461663 0.46165 0.461638 0.461627 0.461616 0.461605 0.461595 0.461585 0.461575 0.461565 0.461556 0.461547 0.461538 0.461529 0.461521 0.461512 0.461504 0.461495 0.461487 0.461479 0.461471 0.461462 0.461454 0.461446 0.461438 0.46143 0.461421 0.461413 0.461405 0.461397 0.461388 0.46138 0.461372 0.461363 0.461355 0.461346 0.461338 0.461329 0.461321 0.461312 0.461304 0.461295 0.461286 0.461278 0.461269 0.46126 0.461252 0.461243 0.461234 0.461225 0.461216 0.461208 0.461199 0.46119 0.461181 0.461172 0.461163 0.461154 0.461145 0.461136 0.461127 0.461118 0.461109 0.4611 0.461091 0.461082 0.461073 0.461064 0.461055 0.461046 0.461037 0.461028 0.461019 0.46101 0.461001 0.460992 0.460984 0.460975 0.460966 0.460957 0.460948 0.460939 0.46093 0.460921 0.460913 0.460904 0.460895 0.460887 0.460878 0.46087 0.460861 0.460853 0.460844 0.460836 0.460828 0.460819 0.460811 0.460803 0.460795 0.460787 0.46078 0.460772 0.460765 0.460758 0.460751 0.460744 0.460737 0.460731 0.460726 0.460721 0.460716 0.460713 0.460711 0.460711 0.460712 0.460717 0.460725 0.460737 0.460756 0.460784 0.460822 0.460874 0.460947 0.461044 0.461175 0.461351 0.461587 0.461903 0.462324 0.462885 0.463633 0.46463 0.465959 0.467727 0.470084 0.473221 0.477399 0.482962 0.490366 0.500213 0.513297 0.530649 0.553594 0.583791 0.623243 0.674202 0.73891 0.819043 0.914831 1.024 1.1411 1.25793 1.36554 1.45688 1.52871 1.58163 1.61866 1.64363 1.66006 1.67071 1.67756 1.68195 1.68477 1.68659 1.68776 1.68852 1.68901 1.68934 1.68956 1.6897 1.6898 1.68987 1.68992 1.68995 1.68997 1.68999 1.69 1.69001 1.69002 1.69003 1.69003 1.69004 1.69004 1.69004 1.69004 1.69005 1.69005 1.69005 1.69005 1.69005 1.69005 1.69005 1.69005 1.69005 1.69005 1.69005 1.69005 1.69005 1.69004 1.69004 1.69004 1.69003 1.69003 1.69002 1.69001 1.69 1.68998 1.68996 1.68993 1.68988 1.68981 1.68971 1.68957 1.68935 1.68903 1.68853 1.68777 1.68659 1.68478 1.68195 1.67755 1.67068 1.66 1.64354 1.61851 1.5814 1.52838 1.45643 1.36499 1.25731 1.14044 1.02337 0.914261 0.81856 0.738521 0.6739 0.623018 0.583629 0.553482 0.530577 0.513256 0.500196 0.490367 0.482977 0.477425 0.473256 0.470124 0.467773 0.466008 0.464683 0.463689 0.462942 0.462382 0.461962 0.461648 0.461413 0.461238 0.461107 0.46101 0.460939 0.460887 0.460849 0.460822 0.460803 0.460791 0.460783 0.46078 0.460778 0.460779 0.460782 0.460786 0.46079 0.460796 0.460802 0.460808 0.460815 0.460822 0.46083 0.460838 0.460846 0.460854 0.460862 0.46087 0.460878 0.460887 0.460896 0.460904 0.460913 0.460922 0.460931 0.46094 0.460949 0.460958 0.460967 0.460976 0.460985 0.460994 0.461004 0.461013 0.461022 0.461031 0.461041 0.46105 0.461059 0.461069 0.461078 0.461088 0.461097 0.461106 0.461116 0.461125 0.461134 0.461144 0.461153 0.461163 0.461172 0.461181 0.461191 0.4612 0.461209 0.461219 0.461228 0.461237 0.461246 0.461256 0.461265 0.461274 0.461283 0.461292 0.461301 0.46131 0.461319 0.461328 0.461337 0.461346 0.461355 0.461364 0.461373 0.461382 0.461391 0.4614 0.461408 0.461417 0.461426 0.461435 0.461443 0.461452 0.46146 0.461469 0.461477 0.461486 0.461494 0.461502 0.461511 0.461519 0.461527 0.461536 0.461544 0.461552 0.46156 0.461568 0.461577 0.461585 0.461593 0.461601 0.46161 0.461618 0.461626 0.461635 0.461644 0.461652 0.461661 0.46167 0.46168 0.461689 0.461699 0.461709 0.461719 0.46173 0.461741 0.461752 0.461764 0.461777 0.461789 0.461802 0.461816 0.461829 0.461841 0.461852 0.461861 0.461867 0.45625 0.456246 0.456238 0.456228 0.456217 0.456204 0.456192 0.456179 0.456167 0.456155 0.456143 0.456132 0.456121 0.45611 0.4561 0.45609 0.456081 0.456071 0.456062 0.456053 0.456044 0.456036 0.456027 0.456019 0.456011 0.456003 0.455995 0.455986 0.455978 0.45597 0.455963 0.455955 0.455947 0.455939 0.455931 0.455923 0.455915 0.455907 0.455899 0.455891 0.455883 0.455875 0.455866 0.455858 0.45585 0.455842 0.455834 0.455825 0.455817 0.455809 0.4558 0.455792 0.455784 0.455775 0.455767 0.455758 0.45575 0.455741 0.455733 0.455724 0.455715 0.455707 0.455698 0.455689 0.455681 0.455672 0.455663 0.455655 0.455646 0.455637 0.455628 0.45562 0.455611 0.455602 0.455593 0.455584 0.455576 0.455567 0.455558 0.455549 0.45554 0.455532 0.455523 0.455514 0.455505 0.455497 0.455488 0.455479 0.45547 0.455462 0.455453 0.455444 0.455436 0.455427 0.455419 0.45541 0.455402 0.455393 0.455385 0.455377 0.455368 0.45536 0.455352 0.455344 0.455336 0.455328 0.45532 0.455312 0.455304 0.455297 0.455289 0.455282 0.455275 0.455268 0.455261 0.455255 0.455249 0.455243 0.455238 0.455234 0.455231 0.455229 0.455228 0.455229 0.455233 0.45524 0.455252 0.45527 0.455295 0.455331 0.455381 0.455449 0.45554 0.455664 0.45583 0.456053 0.45635 0.456747 0.457276 0.457981 0.45892 0.460169 0.461832 0.464045 0.466988 0.470902 0.476107 0.483023 0.492207 0.504387 0.52051 0.54179 0.569747 0.606227 0.65333 0.713216 0.787653 0.877289 0.980694 1.0936 1.20895 1.3183 1.41415 1.49208 1.55134 1.59403 1.62354 1.64337 1.65645 1.665 1.67055 1.67415 1.67649 1.67801 1.67901 1.67966 1.6801 1.68039 1.68059 1.68072 1.68081 1.68087 1.68092 1.68095 1.68097 1.68099 1.681 1.68101 1.68102 1.68103 1.68103 1.68104 1.68104 1.68104 1.68105 1.68105 1.68105 1.68105 1.68105 1.68105 1.68105 1.68105 1.68105 1.68105 1.68105 1.68105 1.68104 1.68104 1.68104 1.68103 1.68103 1.68102 1.68101 1.681 1.68098 1.68096 1.68093 1.68088 1.68082 1.68073 1.6806 1.6804 1.68011 1.67968 1.67902 1.67802 1.67649 1.67415 1.67054 1.66498 1.65642 1.6433 1.62343 1.59386 1.55109 1.49172 1.41369 1.31774 1.20833 1.09297 0.980098 0.87676 0.78721 0.71286 0.653056 0.606022 0.5696 0.541689 0.520446 0.504351 0.492193 0.483026 0.476123 0.470928 0.467022 0.464085 0.461877 0.460218 0.458971 0.458035 0.457332 0.456804 0.456408 0.456112 0.45589 0.455725 0.455601 0.45551 0.455443 0.455394 0.455358 0.455333 0.455316 0.455305 0.455298 0.455295 0.455294 0.455295 0.455297 0.455301 0.455306 0.455312 0.455317 0.455324 0.455331 0.455338 0.455345 0.455353 0.455361 0.455369 0.455377 0.455385 0.455393 0.455402 0.45541 0.455419 0.455427 0.455436 0.455444 0.455453 0.455462 0.455471 0.45548 0.455489 0.455498 0.455507 0.455516 0.455525 0.455534 0.455543 0.455552 0.455561 0.45557 0.45558 0.455589 0.455598 0.455607 0.455616 0.455626 0.455635 0.455644 0.455653 0.455662 0.455671 0.455681 0.45569 0.455699 0.455708 0.455717 0.455726 0.455735 0.455744 0.455753 0.455762 0.455771 0.45578 0.455789 0.455798 0.455807 0.455816 0.455824 0.455833 0.455842 0.455851 0.455859 0.455868 0.455877 0.455885 0.455894 0.455903 0.455911 0.45592 0.455928 0.455936 0.455945 0.455953 0.455961 0.45597 0.455978 0.455986 0.455994 0.456002 0.45601 0.456018 0.456026 0.456034 0.456042 0.45605 0.456058 0.456066 0.456074 0.456082 0.45609 0.456098 0.456106 0.456114 0.456122 0.456131 0.456139 0.456147 0.456156 0.456165 0.456174 0.456183 0.456192 0.456202 0.456212 0.456222 0.456232 0.456243 0.456254 0.456266 0.456277 0.456289 0.456301 0.456313 0.456324 0.456333 0.45634 0.456344 0.452078 0.452074 0.452068 0.45206 0.45205 0.45204 0.452028 0.452017 0.452006 0.451995 0.451984 0.451973 0.451963 0.451953 0.451943 0.451934 0.451925 0.451916 0.451907 0.451898 0.45189 0.451882 0.451874 0.451865 0.451858 0.45185 0.451842 0.451834 0.451826 0.451818 0.451811 0.451803 0.451795 0.451788 0.45178 0.451772 0.451764 0.451757 0.451749 0.451741 0.451733 0.451725 0.451718 0.45171 0.451702 0.451694 0.451686 0.451678 0.45167 0.451662 0.451653 0.451645 0.451637 0.451629 0.451621 0.451612 0.451604 0.451596 0.451587 0.451579 0.451571 0.451562 0.451554 0.451545 0.451537 0.451528 0.45152 0.451511 0.451503 0.451494 0.451486 0.451477 0.451468 0.45146 0.451451 0.451443 0.451434 0.451425 0.451417 0.451408 0.451399 0.451391 0.451382 0.451374 0.451365 0.451356 0.451348 0.451339 0.451331 0.451322 0.451314 0.451305 0.451297 0.451288 0.45128 0.451272 0.451263 0.451255 0.451247 0.451238 0.45123 0.451222 0.451214 0.451206 0.451198 0.45119 0.451183 0.451175 0.451167 0.45116 0.451152 0.451145 0.451138 0.451131 0.451125 0.451118 0.451112 0.451107 0.451102 0.451097 0.451094 0.451091 0.45109 0.451091 0.451095 0.451101 0.451112 0.451128 0.451152 0.451185 0.451231 0.451295 0.45138 0.451496 0.451652 0.45186 0.452138 0.45251 0.453004 0.453663 0.454539 0.455705 0.457254 0.459312 0.462047 0.465678 0.470498 0.476892 0.485364 0.496576 0.511384 0.530885 0.556456 0.589772 0.632773 0.687514 0.755828 0.83874 0.935635 1.04346 1.15646 1.26696 1.36729 1.45189 1.51855 1.56814 1.60339 1.62764 1.64396 1.65479 1.66192 1.6666 1.66967 1.67169 1.67303 1.67391 1.6745 1.6749 1.67517 1.67535 1.67548 1.67557 1.67563 1.67567 1.6757 1.67573 1.67575 1.67576 1.67577 1.67578 1.67578 1.67579 1.67579 1.6758 1.6758 1.6758 1.6758 1.67581 1.67581 1.67581 1.67581 1.67581 1.67581 1.67581 1.6758 1.6758 1.6758 1.67579 1.67579 1.67578 1.67578 1.67577 1.67575 1.67574 1.67571 1.67568 1.67564 1.67558 1.67549 1.67536 1.67518 1.67491 1.67451 1.67392 1.67304 1.6717 1.66968 1.6666 1.66191 1.65476 1.64391 1.62756 1.60326 1.56794 1.51827 1.45151 1.36681 1.2664 1.15586 1.04287 0.935082 0.838257 0.755428 0.687194 0.632527 0.58959 0.556325 0.530797 0.511328 0.496546 0.485354 0.476897 0.470516 0.465705 0.462081 0.459352 0.457297 0.455752 0.454589 0.453715 0.453058 0.452565 0.452195 0.451918 0.45171 0.451555 0.45144 0.451355 0.451292 0.451246 0.451213 0.45119 0.451174 0.451164 0.451158 0.451155 0.451155 0.451156 0.451159 0.451163 0.451168 0.451173 0.451179 0.451186 0.451192 0.4512 0.451207 0.451214 0.451222 0.45123 0.451238 0.451246 0.451254 0.451262 0.451271 0.451279 0.451287 0.451296 0.451304 0.451313 0.451322 0.451331 0.451339 0.451348 0.451357 0.451366 0.451375 0.451384 0.451393 0.451402 0.451411 0.45142 0.451429 0.451438 0.451447 0.451456 0.451465 0.451474 0.451483 0.451492 0.451501 0.45151 0.451519 0.451528 0.451537 0.451546 0.451554 0.451563 0.451572 0.451581 0.45159 0.451599 0.451608 0.451617 0.451625 0.451634 0.451643 0.451651 0.45166 0.451669 0.451677 0.451686 0.451695 0.451703 0.451712 0.45172 0.451728 0.451737 0.451745 0.451753 0.451762 0.45177 0.451778 0.451786 0.451794 0.451803 0.451811 0.451819 0.451827 0.451834 0.451842 0.45185 0.451858 0.451866 0.451874 0.451881 0.451889 0.451897 0.451905 0.451912 0.45192 0.451928 0.451935 0.451943 0.451951 0.451959 0.451967 0.451975 0.451983 0.451991 0.451999 0.452008 0.452016 0.452025 0.452034 0.452043 0.452052 0.452062 0.452072 0.452082 0.452092 0.452103 0.452114 0.452124 0.452135 0.452145 0.452154 0.452162 0.452168 0.452171 0.448926 0.448923 0.448918 0.448911 0.448903 0.448894 0.448884 0.448874 0.448864 0.448854 0.448844 0.448834 0.448824 0.448815 0.448806 0.448797 0.448788 0.44878 0.448771 0.448763 0.448755 0.448747 0.448739 0.448731 0.448723 0.448716 0.448708 0.448701 0.448693 0.448686 0.448678 0.448671 0.448663 0.448656 0.448648 0.448641 0.448633 0.448626 0.448618 0.448611 0.448603 0.448595 0.448588 0.44858 0.448572 0.448564 0.448557 0.448549 0.448541 0.448533 0.448525 0.448517 0.448509 0.448501 0.448493 0.448485 0.448477 0.448469 0.448461 0.448453 0.448444 0.448436 0.448428 0.44842 0.448411 0.448403 0.448395 0.448386 0.448378 0.448369 0.448361 0.448353 0.448344 0.448336 0.448327 0.448319 0.44831 0.448302 0.448293 0.448285 0.448276 0.448268 0.448259 0.448251 0.448242 0.448234 0.448225 0.448217 0.448209 0.4482 0.448192 0.448183 0.448175 0.448167 0.448158 0.44815 0.448142 0.448134 0.448126 0.448117 0.448109 0.448101 0.448093 0.448086 0.448078 0.44807 0.448062 0.448055 0.448047 0.44804 0.448032 0.448025 0.448018 0.448011 0.448005 0.447999 0.447992 0.447987 0.447982 0.447977 0.447973 0.447971 0.447969 0.44797 0.447973 0.447978 0.447988 0.448003 0.448024 0.448055 0.448098 0.448157 0.448236 0.448344 0.448489 0.448682 0.448941 0.449286 0.449745 0.450355 0.451167 0.452245 0.453677 0.455577 0.458096 0.461435 0.465859 0.471714 0.479454 0.489673 0.503136 0.520822 0.543963 0.574066 0.612897 0.662389 0.724391 0.80022 0.889974 0.991754 1.10117 1.2116 1.31558 1.40671 1.4813 1.53878 1.58093 1.61069 1.63115 1.64497 1.6542 1.66033 1.6644 1.66711 1.66891 1.67011 1.67092 1.67147 1.67184 1.67209 1.67227 1.67239 1.67248 1.67254 1.67259 1.67262 1.67264 1.67266 1.67268 1.67269 1.6727 1.6727 1.67271 1.67271 1.67272 1.67272 1.67272 1.67272 1.67273 1.67273 1.67273 1.67273 1.67272 1.67272 1.67272 1.67272 1.67271 1.67271 1.6727 1.6727 1.67268 1.67267 1.67265 1.67263 1.6726 1.67255 1.67249 1.6724 1.67228 1.6721 1.67185 1.67148 1.67093 1.67012 1.66892 1.66711 1.66441 1.66033 1.65418 1.64493 1.63109 1.61059 1.58077 1.53855 1.48099 1.4063 1.31508 1.21104 1.10059 0.991197 0.889468 0.799786 0.724034 0.662107 0.612681 0.573906 0.54385 0.520746 0.503089 0.489649 0.479448 0.471722 0.465877 0.461463 0.45813 0.455616 0.45372 0.452292 0.451216 0.450406 0.449797 0.44934 0.448996 0.448738 0.448545 0.448402 0.448294 0.448215 0.448157 0.448115 0.448085 0.448063 0.448049 0.44804 0.448034 0.448032 0.448032 0.448034 0.448037 0.448041 0.448046 0.448052 0.448058 0.448064 0.448071 0.448078 0.448085 0.448093 0.4481 0.448108 0.448116 0.448124 0.448132 0.44814 0.448148 0.448157 0.448165 0.448174 0.448182 0.448191 0.448199 0.448208 0.448216 0.448225 0.448234 0.448243 0.448251 0.44826 0.448269 0.448278 0.448287 0.448296 0.448304 0.448313 0.448322 0.448331 0.44834 0.448349 0.448358 0.448367 0.448376 0.448384 0.448393 0.448402 0.448411 0.44842 0.448428 0.448437 0.448446 0.448455 0.448463 0.448472 0.448481 0.448489 0.448498 0.448507 0.448515 0.448524 0.448532 0.448541 0.448549 0.448558 0.448566 0.448574 0.448582 0.448591 0.448599 0.448607 0.448615 0.448623 0.448631 0.448639 0.448647 0.448655 0.448663 0.448671 0.448679 0.448687 0.448695 0.448702 0.44871 0.448718 0.448725 0.448733 0.44874 0.448748 0.448755 0.448763 0.44877 0.448778 0.448785 0.448793 0.4488 0.448808 0.448815 0.448823 0.448831 0.448838 0.448846 0.448854 0.448862 0.44887 0.448878 0.448887 0.448895 0.448904 0.448913 0.448922 0.448931 0.448941 0.44895 0.44896 0.44897 0.448979 0.448988 0.448997 0.449005 0.449011 0.449016 0.449018 0.446545 0.446543 0.446539 0.446533 0.446526 0.446519 0.44651 0.446501 0.446492 0.446483 0.446474 0.446465 0.446456 0.446447 0.446438 0.44643 0.446421 0.446413 0.446405 0.446397 0.446389 0.446382 0.446374 0.446366 0.446359 0.446352 0.446344 0.446337 0.44633 0.446322 0.446315 0.446308 0.446301 0.446293 0.446286 0.446279 0.446271 0.446264 0.446257 0.446249 0.446242 0.446235 0.446227 0.44622 0.446212 0.446205 0.446197 0.446189 0.446182 0.446174 0.446166 0.446158 0.446151 0.446143 0.446135 0.446127 0.446119 0.446111 0.446103 0.446095 0.446087 0.446079 0.446071 0.446063 0.446055 0.446046 0.446038 0.44603 0.446022 0.446013 0.446005 0.445997 0.445989 0.44598 0.445972 0.445964 0.445955 0.445947 0.445938 0.44593 0.445922 0.445913 0.445905 0.445897 0.445888 0.44588 0.445871 0.445863 0.445855 0.445846 0.445838 0.44583 0.445821 0.445813 0.445805 0.445797 0.445789 0.445781 0.445772 0.445764 0.445756 0.445748 0.44574 0.445733 0.445725 0.445717 0.44571 0.445702 0.445694 0.445687 0.44568 0.445673 0.445666 0.445659 0.445652 0.445646 0.44564 0.445634 0.445629 0.445624 0.44562 0.445618 0.445616 0.445616 0.445618 0.445623 0.445631 0.445645 0.445664 0.445692 0.445732 0.445786 0.445859 0.445959 0.446092 0.446271 0.446509 0.446828 0.447251 0.447813 0.44856 0.449551 0.450864 0.452603 0.454906 0.457952 0.461978 0.467294 0.474305 0.483537 0.495667 0.511561 0.532309 0.559253 0.593984 0.638289 0.693983 0.762576 0.844729 0.939558 1.04401 1.15275 1.25892 1.35573 1.43822 1.50425 1.55434 1.59076 1.6164 1.63406 1.64605 1.65413 1.65954 1.66318 1.66562 1.66726 1.66838 1.66914 1.66965 1.67001 1.67026 1.67044 1.67056 1.67065 1.67071 1.67076 1.67079 1.67082 1.67084 1.67086 1.67087 1.67088 1.67088 1.67089 1.67089 1.6709 1.6709 1.6709 1.6709 1.6709 1.6709 1.6709 1.6709 1.6709 1.6709 1.67089 1.67089 1.67088 1.67087 1.67086 1.67085 1.67083 1.6708 1.67077 1.67072 1.67066 1.67057 1.67045 1.67027 1.67002 1.66967 1.66915 1.66839 1.66727 1.66563 1.66318 1.65954 1.65411 1.64602 1.63401 1.61632 1.59063 1.55416 1.50399 1.43788 1.3553 1.25842 1.15221 1.04347 0.939047 0.844275 0.762192 0.693671 0.638043 0.593797 0.559116 0.532213 0.511497 0.495628 0.483519 0.474303 0.467305 0.461998 0.45798 0.45494 0.452642 0.450906 0.449596 0.448608 0.447863 0.447302 0.44688 0.446563 0.446325 0.446147 0.446015 0.445916 0.445843 0.445789 0.445751 0.445723 0.445704 0.445691 0.445683 0.445678 0.445677 0.445677 0.445679 0.445682 0.445687 0.445692 0.445698 0.445704 0.44571 0.445717 0.445724 0.445731 0.445739 0.445746 0.445754 0.445762 0.44577 0.445778 0.445786 0.445794 0.445802 0.445811 0.445819 0.445827 0.445836 0.445844 0.445853 0.445862 0.44587 0.445879 0.445888 0.445896 0.445905 0.445914 0.445923 0.445931 0.44594 0.445949 0.445958 0.445966 0.445975 0.445984 0.445993 0.446002 0.44601 0.446019 0.446028 0.446037 0.446045 0.446054 0.446063 0.446071 0.44608 0.446089 0.446097 0.446106 0.446115 0.446123 0.446132 0.44614 0.446148 0.446157 0.446165 0.446174 0.446182 0.44619 0.446198 0.446207 0.446215 0.446223 0.446231 0.446239 0.446247 0.446255 0.446263 0.446271 0.446279 0.446286 0.446294 0.446302 0.44631 0.446317 0.446325 0.446332 0.44634 0.446347 0.446355 0.446362 0.44637 0.446377 0.446384 0.446392 0.446399 0.446406 0.446414 0.446421 0.446428 0.446435 0.446443 0.44645 0.446457 0.446465 0.446472 0.44648 0.446487 0.446495 0.446503 0.446511 0.446519 0.446527 0.446535 0.446543 0.446552 0.44656 0.446569 0.446578 0.446587 0.446596 0.446604 0.446612 0.44662 0.446626 0.446631 0.446635 0.446637 0.444747 0.444745 0.444742 0.444737 0.444732 0.444725 0.444717 0.44471 0.444701 0.444693 0.444685 0.444676 0.444668 0.44466 0.444651 0.444643 0.444636 0.444628 0.44462 0.444612 0.444605 0.444598 0.44459 0.444583 0.444576 0.444569 0.444561 0.444554 0.444547 0.44454 0.444533 0.444526 0.444519 0.444512 0.444505 0.444498 0.444491 0.444484 0.444476 0.444469 0.444462 0.444455 0.444447 0.44444 0.444433 0.444425 0.444418 0.44441 0.444403 0.444395 0.444388 0.44438 0.444373 0.444365 0.444357 0.444349 0.444342 0.444334 0.444326 0.444318 0.44431 0.444302 0.444294 0.444286 0.444278 0.44427 0.444262 0.444254 0.444246 0.444238 0.444229 0.444221 0.444213 0.444205 0.444197 0.444188 0.44418 0.444172 0.444163 0.444155 0.444147 0.444139 0.44413 0.444122 0.444114 0.444105 0.444097 0.444089 0.44408 0.444072 0.444064 0.444056 0.444047 0.444039 0.444031 0.444023 0.444015 0.444007 0.443999 0.443991 0.443983 0.443975 0.443967 0.443959 0.443951 0.443944 0.443936 0.443928 0.443921 0.443914 0.443906 0.443899 0.443892 0.443885 0.443879 0.443872 0.443866 0.44386 0.443855 0.44385 0.443846 0.443843 0.443841 0.44384 0.443842 0.443846 0.443853 0.443865 0.443883 0.443908 0.443944 0.443994 0.444061 0.444152 0.444274 0.444439 0.444657 0.444949 0.445337 0.445852 0.446534 0.447438 0.448634 0.450216 0.452305 0.455063 0.4587 0.46349 0.46979 0.478063 0.488904 0.503072 0.521522 0.545436 0.576232 0.615539 0.665088 0.726482 0.800785 0.887938 0.986117 1.09136 1.19779 1.29877 1.38845 1.4632 1.52206 1.56626 1.59824 1.62077 1.63635 1.647 1.65423 1.65914 1.66246 1.66472 1.66626 1.66732 1.66804 1.66855 1.6689 1.66915 1.66933 1.66946 1.66955 1.66962 1.66967 1.6697 1.66973 1.66975 1.66977 1.66978 1.66979 1.6698 1.66981 1.66981 1.66982 1.66982 1.66982 1.66982 1.66982 1.66982 1.66982 1.66982 1.66981 1.66981 1.6698 1.66979 1.66978 1.66976 1.66974 1.66971 1.66967 1.66963 1.66956 1.66947 1.66934 1.66916 1.66891 1.66856 1.66806 1.66733 1.66627 1.66473 1.66247 1.65914 1.65423 1.64698 1.63631 1.62071 1.59814 1.56611 1.52185 1.46291 1.38808 1.29832 1.1973 1.09084 0.985615 0.887477 0.800384 0.726147 0.664818 0.615329 0.576073 0.54532 0.521441 0.50302 0.488875 0.478052 0.469793 0.463503 0.458722 0.455092 0.452339 0.450254 0.448676 0.447483 0.446581 0.4459 0.445387 0.445001 0.44471 0.444492 0.444329 0.444207 0.444116 0.44405 0.444001 0.443965 0.44394 0.443923 0.443911 0.443905 0.443901 0.4439 0.443901 0.443903 0.443907 0.443912 0.443917 0.443923 0.443929 0.443935 0.443942 0.443949 0.443957 0.443964 0.443972 0.443979 0.443987 0.443995 0.444003 0.444011 0.444019 0.444028 0.444036 0.444044 0.444052 0.444061 0.444069 0.444078 0.444086 0.444095 0.444104 0.444112 0.444121 0.44413 0.444138 0.444147 0.444156 0.444164 0.444173 0.444182 0.444191 0.444199 0.444208 0.444217 0.444225 0.444234 0.444243 0.444252 0.44426 0.444269 0.444278 0.444286 0.444295 0.444303 0.444312 0.44432 0.444329 0.444337 0.444346 0.444354 0.444362 0.444371 0.444379 0.444387 0.444396 0.444404 0.444412 0.44442 0.444428 0.444436 0.444444 0.444452 0.44446 0.444468 0.444476 0.444483 0.444491 0.444499 0.444506 0.444514 0.444522 0.444529 0.444537 0.444544 0.444551 0.444559 0.444566 0.444573 0.444581 0.444588 0.444595 0.444602 0.444609 0.444616 0.444623 0.44463 0.444638 0.444645 0.444652 0.444659 0.444666 0.444673 0.44468 0.444687 0.444695 0.444702 0.444709 0.444717 0.444724 0.444732 0.44474 0.444747 0.444755 0.444763 0.444771 0.444779 0.444787 0.444795 0.444803 0.444811 0.444818 0.444824 0.44483 0.444834 0.444837 0.444839 0.443389 0.443387 0.443385 0.443381 0.443376 0.44337 0.443364 0.443357 0.443349 0.443342 0.443334 0.443327 0.443319 0.443311 0.443303 0.443296 0.443288 0.443281 0.443274 0.443266 0.443259 0.443252 0