# vtk DataFile Version 3.0
Immiscible displacement
ASCII
DATASET RECTILINEAR_GRID
DIMENSIONS 200 200 1
X_COORDINATES 200 double
1 2 3 4 5 6 7 8 9 10 11 12 13 14 15 16 17 18 19 20 21 22 23 24 25 26 27 28 29 30 31 32 33 34 35 36 37 38 39 40 41 42 43 44 45 46 47 48 49 50 51 52 53 54 55 56 57 58 59 60 61 62 63 64 65 66 67 68 69 70 71 72 73 74 75 76 77 78 79 80 81 82 83 84 85 86 87 88 89 90 91 92 93 94 95 96 97 98 99 100 101 102 103 104 105 106 107 108 109 110 111 112 113 114 115 116 117 118 119 120 121 122 123 124 125 126 127 128 129 130 131 132 133 134 135 136 137 138 139 140 141 142 143 144 145 146 147 148 149 150 151 152 153 154 155 156 157 158 159 160 161 162 163 164 165 166 167 168 169 170 171 172 173 174 175 176 177 178 179 180 181 182 183 184 185 186 187 188 189 190 191 192 193 194 195 196 197 198 199 200 
Y_COORDINATES 200 double
1 2 3 4 5 6 7 8 9 10 11 12 13 14 15 16 17 18 19 20 21 22 23 24 25 26 27 28 29 30 31 32 33 34 35 36 37 38 39 40 41 42 43 44 45 46 47 48 49 50 51 52 53 54 55 56 57 58 59 60 61 62 63 64 65 66 67 68 69 70 71 72 73 74 75 76 77 78 79 80 81 82 83 84 85 86 87 88 89 90 91 92 93 94 95 96 97 98 99 100 101 102 103 104 105 106 107 108 109 110 111 112 113 114 115 116 117 118 119 120 121 122 123 124 125 126 127 128 129 130 131 132 133 134 135 136 137 138 139 140 141 142 143 144 145 146 147 148 149 150 151 152 153 154 155 156 157 158 159 160 161 162 163 164 165 166 167 168 169 170 171 172 173 174 175 176 177 178 179 180 181 182 183 184 185 186 187 188 189 190 191 192 193 194 195 196 197 198 199 200 
Z_COORDINATES 1 double
0
POINT_DATA 40000
SCALARS rho double 1
LOOKUP_TABLE default
0.427625 0.427657 0.427704 0.427762 0.42783 0.427908 0.427997 0.4281 0.428218 0.428352 0.428504 0.428677 0.428871 0.429091 0.42934 0.429626 0.429953 0.430336 0.430787 0.431327 0.431984 0.432796 0.433811 0.435099 0.436749 0.438885 0.441668 0.44532 0.450129 0.456486 0.464907 0.47608 0.490903 0.510553 0.536532 0.570717 0.615331 0.67281 0.745395 0.834404 0.939116 1.05568 1.17674 1.29274 1.39466 1.47688 1.53823 1.58114 1.60964 1.62784 1.63909 1.64584 1.64973 1.65184 1.65285 1.65319 1.6531 1.65276 1.65225 1.65165 1.65099 1.6503 1.64958 1.64885 1.64811 1.64738 1.64664 1.64591 1.64518 1.64447 1.64375 1.64306 1.64236 1.64169 1.64102 1.64037 1.63974 1.63912 1.63852 1.63794 1.63738 1.63685 1.63633 1.63584 1.63537 1.63493 1.63451 1.63413 1.63376 1.63343 1.63313 1.63286 1.63262 1.63241 1.63223 1.63209 1.63198 1.6319 1.63185 1.63184 1.63186 1.63192 1.632 1.63212 1.63227 1.63246 1.63268 1.63293 1.6332 1.63351 1.63385 1.63422 1.63461 1.63504 1.63548 1.63596 1.63645 1.63697 1.63751 1.63808 1.63866 1.63926 1.63988 1.64052 1.64117 1.64184 1.64251 1.64321 1.6439 1.64462 1.64533 1.64606 1.64679 1.64753 1.64826 1.649 1.64972 1.65044 1.65113 1.65179 1.65238 1.65288 1.65322 1.6533 1.65295 1.65192 1.64978 1.64585 1.63904 1.62768 1.60933 1.58061 1.5374 1.47568 1.39309 1.29085 1.17467 1.05361 0.937214 0.832769 0.744067 0.671782 0.614569 0.570177 0.536172 0.510336 0.490797 0.476061 0.464956 0.456586 0.450268 0.445489 0.441861 0.439094 0.43697 0.435329 0.434046 0.433033 0.432221 0.431562 0.431017 0.43056 0.430171 0.429834 0.429539 0.429279 0.429048 0.428841 0.428657 0.428493 0.428348 0.42822 0.428109 0.428013 0.42793 0.42786 0.427801 0.427752 0.427714 0.427689 0.427665 0.42769 0.427733 0.427788 0.427853 0.42793 0.428019 0.428122 0.428238 0.428372 0.428523 0.428695 0.428888 0.429107 0.429354 0.429638 0.429963 0.430344 0.430791 0.431329 0.431982 0.43279 0.4338 0.435082 0.436724 0.43885 0.441619 0.445253 0.450038 0.456365 0.464743 0.47586 0.490605 0.510154 0.535996 0.570004 0.614389 0.671586 0.74384 0.832498 0.936888 1.05323 1.17426 1.29043 1.39269 1.47534 1.53711 1.58037 1.60914 1.62752 1.63889 1.64572 1.64966 1.65181 1.65284 1.65319 1.6531 1.65277 1.65227 1.65168 1.65102 1.65033 1.64961 1.64889 1.64815 1.64742 1.64668 1.64596 1.64523 1.64452 1.6438 1.64311 1.64242 1.64175 1.64108 1.64044 1.6398 1.63919 1.63859 1.63801 1.63745 1.63692 1.6364 1.63591 1.63544 1.63501 1.63459 1.63421 1.63384 1.63352 1.63321 1.63295 1.6327 1.6325 1.63232 1.63218 1.63206 1.63199 1.63194 1.63193 1.63195 1.63201 1.63209 1.63221 1.63236 1.63255 1.63276 1.63301 1.63328 1.6336 1.63393 1.6343 1.63469 1.63511 1.63555 1.63603 1.63652 1.63704 1.63758 1.63815 1.63872 1.63933 1.63994 1.64058 1.64122 1.64189 1.64256 1.64326 1.64395 1.64467 1.64538 1.64611 1.64683 1.64757 1.64829 1.64903 1.64975 1.65047 1.65115 1.65181 1.6524 1.65289 1.65322 1.65329 1.65293 1.65189 1.64971 1.64573 1.63883 1.62736 1.60882 1.57984 1.53628 1.47414 1.39112 1.28854 1.1722 1.05118 0.934999 0.830876 0.742524 0.670567 0.613634 0.56947 0.535641 0.50994 0.490502 0.475842 0.464792 0.456464 0.450177 0.445422 0.441811 0.439058 0.436944 0.43531 0.434033 0.433026 0.432218 0.431562 0.43102 0.430566 0.430178 0.429844 0.429551 0.429293 0.429062 0.428858 0.428674 0.428511 0.428367 0.42824 0.428128 0.428033 0.42795 0.427881 0.427823 0.427777 0.427741 0.427721 0.427726 0.427746 0.427783 0.427833 0.427896 0.42797 0.428057 0.428158 0.428273 0.428406 0.428555 0.428725 0.428915 0.429132 0.429376 0.429657 0.429979 0.430355 0.430798 0.43133 0.431977 0.432777 0.433777 0.435047 0.436673 0.438779 0.441522 0.445122 0.449861 0.456126 0.464422 0.475428 0.490026 0.509376 0.534956 0.56862 0.612565 0.669217 0.740835 0.828813 0.932579 1.0485 1.16943 1.28592 1.38884 1.4723 1.53489 1.57884 1.60812 1.62687 1.63849 1.64548 1.64952 1.65173 1.6528 1.65318 1.65312 1.6528 1.6523 1.65172 1.65106 1.65038 1.64967 1.64895 1.64821 1.64749 1.64675 1.64603 1.64531 1.6446 1.64389 1.6432 1.64251 1.64184 1.64118 1.64054 1.6399 1.6393 1.6387 1.63813 1.63757 1.63704 1.63652 1.63604 1.63557 1.63514 1.63472 1.63434 1.63398 1.63365 1.63335 1.63309 1.63284 1.63264 1.63246 1.63232 1.63221 1.63213 1.63208 1.63208 1.63209 1.63215 1.63223 1.63236 1.6325 1.63269 1.6329 1.63315 1.63342 1.63373 1.63406 1.63443 1.63482 1.63524 1.63568 1.63615 1.63664 1.63716 1.6377 1.63826 1.63883 1.63943 1.64004 1.64068 1.64132 1.64199 1.64266 1.64335 1.64404 1.64475 1.64546 1.64618 1.6469 1.64763 1.64836 1.64909 1.64981 1.65052 1.6512 1.65185 1.65243 1.65292 1.65323 1.65329 1.6529 1.65181 1.64957 1.64548 1.63843 1.62671 1.6078 1.57829 1.53404 1.4711 1.38726 1.28404 1.16739 1.04647 0.930715 0.827215 0.73954 0.668216 0.611824 0.568097 0.534609 0.509168 0.489926 0.475413 0.464472 0.456226 0.45 0.44529 0.441713 0.438986 0.436892 0.435273 0.434008 0.43301 0.43221 0.431561 0.431024 0.430575 0.430191 0.42986 0.42957 0.429315 0.429087 0.428884 0.428702 0.428541 0.428398 0.428272 0.428161 0.428067 0.427985 0.427918 0.427862 0.427818 0.427787 0.427771 0.4278 0.427816 0.427847 0.427892 0.427951 0.428022 0.428106 0.428205 0.428318 0.428448 0.428595 0.428762 0.42895 0.429163 0.429404 0.42968 0.429997 0.430367 0.430804 0.431329 0.431966 0.432754 0.433741 0.434993 0.436597 0.438674 0.441379 0.444929 0.449601 0.455777 0.463954 0.474799 0.489183 0.508247 0.533447 0.566614 0.609923 0.665787 0.736482 0.823471 0.92632 1.0416 1.16238 1.27929 1.38313 1.46778 1.53156 1.57652 1.60659 1.62589 1.63788 1.64511 1.6493 1.65162 1.65275 1.65317 1.65313 1.65283 1.65235 1.65177 1.65113 1.65045 1.64974 1.64903 1.6483 1.64758 1.64685 1.64613 1.64541 1.64471 1.644 1.64332 1.64263 1.64197 1.64131 1.64067 1.64004 1.63944 1.63884 1.63828 1.63772 1.63719 1.63668 1.6362 1.63573 1.6353 1.63489 1.63451 1.63415 1.63383 1.63353 1.63327 1.63302 1.63282 1.63264 1.63251 1.63239 1.63232 1.63227 1.63226 1.63228 1.63234 1.63242 1.63254 1.63269 1.63287 1.63308 1.63333 1.6336 1.63391 1.63424 1.6346 1.63499 1.63541 1.63584 1.63631 1.6368 1.63732 1.63785 1.63841 1.63898 1.63957 1.64018 1.64081 1.64145 1.64211 1.64278 1.64346 1.64415 1.64485 1.64556 1.64628 1.64699 1.64772 1.64844 1.64917 1.64988 1.65059 1.65126 1.6519 1.65248 1.65295 1.65325 1.65327 1.65284 1.65169 1.64935 1.64511 1.63781 1.62572 1.60626 1.57597 1.53071 1.46657 1.38155 1.27742 1.16035 1.0396 0.924488 0.821905 0.735216 0.664811 0.609202 0.566106 0.533111 0.508047 0.489089 0.474788 0.464006 0.455878 0.44974 0.445097 0.441569 0.43888 0.436814 0.435217 0.433969 0.432985 0.432196 0.431556 0.431026 0.430583 0.430205 0.429879 0.429593 0.429341 0.429117 0.428917 0.428738 0.428579 0.428437 0.428312 0.428204 0.42811 0.428031 0.427965 0.427912 0.427872 0.427844 0.427831 0.427879 0.427892 0.427919 0.427959 0.428013 0.428081 0.428162 0.428258 0.428368 0.428495 0.42864 0.428803 0.428988 0.429197 0.429433 0.429704 0.430015 0.430379 0.430808 0.431323 0.431949 0.432723 0.433692 0.434922 0.436497 0.438537 0.441194 0.444678 0.449264 0.455326 0.463349 0.473989 0.488097 0.506794 0.531507 0.564037 0.606529 0.66138 0.730884 0.816588 0.918234 1.03265 1.15318 1.27059 1.37558 1.46176 1.5271 1.57341 1.60451 1.62455 1.63704 1.6446 1.649 1.65145 1.65267 1.65314 1.65314 1.65287 1.65241 1.65184 1.65121 1.65054 1.64984 1.64913 1.64841 1.64769 1.64697 1.64625 1.64554 1.64484 1.64414 1.64346 1.64277 1.64212 1.64146 1.64083 1.6402 1.6396 1.63901 1.63845 1.6379 1.63737 1.63687 1.63639 1.63593 1.6355 1.63509 1.63471 1.63435 1.63404 1.63374 1.63347 1.63324 1.63304 1.63286 1.63272 1.63261 1.63254 1.63249 1.63248 1.63249 1.63255 1.63263 1.63275 1.6329 1.63308 1.63329 1.63354 1.63381 1.63411 1.63444 1.6348 1.63518 1.6356 1.63603 1.6365 1.63698 1.6375 1.63802 1.63858 1.63914 1.63974 1.64034 1.64097 1.6416 1.64226 1.64292 1.6436 1.64428 1.64498 1.64568 1.6464 1.64711 1.64783 1.64855 1.64927 1.64997 1.65067 1.65134 1.65197 1.65253 1.65299 1.65326 1.65325 1.65276 1.65153 1.64905 1.64459 1.63697 1.62437 1.60417 1.57285 1.52623 1.46054 1.374 1.26872 1.15117 1.03068 0.91644 0.815061 0.729654 0.660434 0.605832 0.563548 0.531186 0.506604 0.488011 0.473983 0.463405 0.45543 0.449405 0.444846 0.441383 0.438741 0.436712 0.435144 0.433918 0.43295 0.432175 0.431546 0.431026 0.430591 0.430219 0.429899 0.429618 0.42937 0.429149 0.428953 0.428777 0.42862 0.42848 0.428358 0.428251 0.428159 0.428082 0.428018 0.427968 0.427931 0.427907 0.427896 0.427959 0.42797 0.427993 0.42803 0.42808 0.428144 0.428221 0.428314 0.428421 0.428545 0.428686 0.428846 0.429027 0.429231 0.429463 0.429728 0.430032 0.430388 0.430808 0.431312 0.431925 0.432683 0.433631 0.434834 0.436376 0.438371 0.440969 0.444376 0.448859 0.454782 0.462622 0.473014 0.486792 0.505048 0.529177 0.560941 0.602451 0.656081 0.724144 0.808279 0.908435 1.02175 1.1419 1.25984 1.36619 1.45422 1.52147 1.56946 1.60186 1.62283 1.63596 1.64393 1.64861 1.65124 1.65257 1.65311 1.65316 1.65291 1.65247 1.65192 1.6513 1.65064 1.64994 1.64924 1.64853 1.64782 1.6471 1.64639 1.64568 1.64499 1.64429 1.64361 1.64294 1.64228 1.64163 1.64101 1.64039 1.63979 1.6392 1.63864 1.6381 1.63758 1.63707 1.6366 1.63614 1.63572 1.63531 1.63493 1.63458 1.63426 1.63397 1.63371 1.63347 1.63327 1.63309 1.63296 1.63285 1.63277 1.63272 1.63272 1.63273 1.63279 1.63287 1.63299 1.63313 1.63332 1.63352 1.63377 1.63403 1.63434 1.63466 1.63502 1.6354 1.63582 1.63625 1.63671 1.63719 1.6377 1.63822 1.63877 1.63933 1.63992 1.64052 1.64115 1.64177 1.64243 1.64308 1.64376 1.64444 1.64513 1.64583 1.64654 1.64724 1.64796 1.64867 1.64938 1.65008 1.65077 1.65143 1.65205 1.65259 1.65303 1.65327 1.65321 1.65266 1.65131 1.64865 1.64393 1.63588 1.62264 1.60151 1.56887 1.52058 1.45298 1.3646 1.25798 1.13991 1.01982 0.906685 0.806797 0.722955 0.65517 0.601783 0.560475 0.528872 0.504871 0.486715 0.473016 0.462683 0.45489 0.449001 0.444545 0.441158 0.438574 0.436589 0.435054 0.433854 0.432907 0.432148 0.431532 0.431022 0.430596 0.430232 0.429918 0.429642 0.4294 0.429183 0.42899 0.428817 0.428663 0.428526 0.428406 0.428301 0.428211 0.428136 0.428075 0.428027 0.427993 0.427972 0.427962 0.428039 0.428048 0.428068 0.428101 0.428147 0.428207 0.428282 0.428371 0.428475 0.428596 0.428733 0.42889 0.429066 0.429265 0.429491 0.42975 0.430048 0.430395 0.430805 0.431297 0.431894 0.432634 0.433558 0.434732 0.436234 0.438178 0.440709 0.444027 0.448392 0.454157 0.461784 0.471893 0.485291 0.503039 0.526497 0.557381 0.597758 0.649977 0.716363 0.798659 0.897037 1.00899 1.12859 1.24705 1.35491 1.44507 1.51459 1.56459 1.59857 1.6207 1.63461 1.6431 1.64812 1.65096 1.65243 1.65306 1.65317 1.65296 1.65254 1.65202 1.6514 1.65075 1.65007 1.64938 1.64867 1.64796 1.64725 1.64655 1.64584 1.64515 1.64446 1.64379 1.64312 1.64247 1.64183 1.6412 1.64059 1.64 1.63941 1.63886 1.63831 1.6378 1.6373 1.63683 1.63637 1.63595 1.63554 1.63517 1.63482 1.63451 1.63421 1.63396 1.63372 1.63352 1.63335 1.63321 1.6331 1.63303 1.63298 1.63297 1.63299 1.63305 1.63313 1.63325 1.63339 1.63357 1.63377 1.63402 1.63428 1.63458 1.6349 1.63526 1.63564 1.63605 1.63648 1.63694 1.63741 1.63792 1.63844 1.63898 1.63954 1.64013 1.64072 1.64134 1.64196 1.64261 1.64326 1.64393 1.6446 1.6453 1.64598 1.64669 1.64739 1.6481 1.6488 1.64951 1.6502 1.65089 1.65153 1.65214 1.65266 1.65307 1.65328 1.65316 1.65251 1.65103 1.64816 1.64309 1.63452 1.6205 1.59821 1.56399 1.51368 1.44381 1.35331 1.24519 1.12663 1.0071 0.895337 0.797227 0.71522 0.649104 0.597121 0.556939 0.526211 0.502877 0.485225 0.471902 0.461851 0.454268 0.448537 0.444197 0.440898 0.438381 0.436446 0.43495 0.433779 0.432855 0.432114 0.431512 0.431015 0.430598 0.430242 0.429935 0.429666 0.429428 0.429216 0.429027 0.428857 0.428706 0.428572 0.428454 0.428351 0.428264 0.428191 0.428132 0.428087 0.428055 0.428036 0.428027 0.428114 0.428122 0.42814 0.42817 0.428213 0.42827 0.428341 0.428427 0.428528 0.428645 0.428779 0.428931 0.429103 0.429298 0.429518 0.42977 0.43006 0.430399 0.430798 0.431276 0.431858 0.432577 0.433476 0.434616 0.436075 0.437963 0.440419 0.443638 0.447871 0.453459 0.46085 0.470642 0.483616 0.5008 0.523508 0.553408 0.592519 0.643153 0.707647 0.787843 0.884156 0.994474 1.11331 1.23221 1.34169 1.43424 1.50636 1.55872 1.59459 1.61809 1.63295 1.64208 1.64751 1.65061 1.65225 1.65299 1.65317 1.653 1.65262 1.65212 1.65152 1.65088 1.65021 1.64952 1.64882 1.64812 1.64742 1.64672 1.64602 1.64534 1.64465 1.64398 1.64332 1.64267 1.64203 1.64142 1.6408 1.64022 1.63964 1.63909 1.63855 1.63804 1.63754 1.63707 1.63662 1.6362 1.6358 1.63543 1.63508 1.63477 1.63448 1.63422 1.63399 1.63379 1.63362 1.63349 1.63337 1.6333 1.63326 1.63325 1.63326 1.63332 1.6334 1.63352 1.63366 1.63384 1.63404 1.63428 1.63454 1.63484 1.63516 1.63552 1.63589 1.6363 1.63672 1.63718 1.63765 1.63815 1.63867 1.63921 1.63977 1.64035 1.64094 1.64155 1.64217 1.64281 1.64346 1.64412 1.64479 1.64548 1.64616 1.64686 1.64755 1.64826 1.64896 1.64966 1.65034 1.65101 1.65165 1.65224 1.65274 1.65312 1.65327 1.65309 1.65233 1.65067 1.64754 1.64206 1.63285 1.61788 1.5942 1.55809 1.50542 1.43295 1.34007 1.23036 1.11138 0.992623 0.882508 0.786465 0.706552 0.642322 0.591916 0.552993 0.523243 0.500654 0.483563 0.47066 0.460923 0.453575 0.448018 0.44381 0.440609 0.438165 0.436286 0.434832 0.433694 0.432795 0.432074 0.431488 0.431004 0.430597 0.43025 0.42995 0.429687 0.429455 0.429247 0.429062 0.428896 0.428748 0.428617 0.428501 0.428401 0.428316 0.428245 0.428188 0.428145 0.428115 0.428097 0.42809 0.428185 0.428191 0.428207 0.428235 0.428276 0.42833 0.428398 0.428481 0.428579 0.428693 0.428823 0.428971 0.429138 0.429328 0.429542 0.429788 0.43007 0.430399 0.430786 0.431251 0.431816 0.432513 0.433384 0.434488 0.435901 0.437727 0.440102 0.443213 0.447303 0.452699 0.459833 0.469281 0.481793 0.49836 0.520251 0.549079 0.586803 0.635696 0.698098 0.775947 0.869908 0.978287 1.09611 1.21531 1.32645 1.4216 1.49666 1.55174 1.58982 1.61495 1.63094 1.64083 1.64675 1.65018 1.65202 1.65289 1.65315 1.65305 1.6527 1.65222 1.65165 1.65102 1.65036 1.64968 1.64899 1.6483 1.6476 1.64691 1.64621 1.64553 1.64485 1.64419 1.64353 1.64289 1.64226 1.64164 1.64104 1.64045 1.63988 1.63933 1.6388 1.63829 1.6378 1.63733 1.63688 1.63647 1.63607 1.6357 1.63536 1.63505 1.63476 1.6345 1.63427 1.63408 1.6339 1.63377 1.63366 1.63359 1.63354 1.63354 1.63355 1.63361 1.63368 1.6338 1.63394 1.63412 1.63432 1.63456 1.63482 1.63512 1.63544 1.63579 1.63616 1.63656 1.63698 1.63744 1.63791 1.6384 1.63891 1.63945 1.64 1.64058 1.64117 1.64177 1.64239 1.64303 1.64367 1.64433 1.64499 1.64567 1.64635 1.64704 1.64773 1.64843 1.64912 1.64981 1.65049 1.65115 1.65177 1.65235 1.65282 1.65316 1.65326 1.65299 1.6521 1.65024 1.64678 1.6408 1.63083 1.61471 1.5894 1.55108 1.49569 1.42028 1.32481 1.21347 1.09421 0.976484 0.868317 0.774626 0.697056 0.63491 0.586236 0.548692 0.520008 0.498231 0.481752 0.469308 0.459913 0.45282 0.447454 0.443387 0.440293 0.43793 0.436111 0.434703 0.433601 0.432729 0.432029 0.43146 0.430989 0.430593 0.430255 0.429963 0.429706 0.429479 0.429276 0.429095 0.428933 0.428788 0.428659 0.428546 0.428448 0.428365 0.428296 0.428241 0.4282 0.428171 0.428155 0.428148 0.42825 0.428255 0.42827 0.428296 0.428334 0.428386 0.428451 0.428532 0.428626 0.428737 0.428863 0.429008 0.42917 0.429355 0.429564 0.429802 0.430076 0.430396 0.430772 0.431222 0.431768 0.432443 0.433284 0.434351 0.435714 0.437475 0.439764 0.44276 0.446696 0.451887 0.458746 0.467825 0.479843 0.495752 0.516768 0.544445 0.58068 0.627695 0.687823 0.763092 0.854415 0.960539 1.07705 1.19635 1.30911 1.40703 1.48534 1.54351 1.58414 1.61118 1.62852 1.63932 1.64583 1.64964 1.65173 1.65276 1.65313 1.65309 1.65279 1.65234 1.65178 1.65117 1.65052 1.64986 1.64917 1.64849 1.64779 1.64711 1.64642 1.64575 1.64507 1.64442 1.64376 1.64313 1.64249 1.64189 1.64128 1.64071 1.64014 1.63959 1.63906 1.63856 1.63807 1.63761 1.63716 1.63675 1.63635 1.63599 1.63565 1.63534 1.63505 1.6348 1.63457 1.63438 1.6342 1.63407 1.63396 1.63389 1.63385 1.63384 1.63385 1.63391 1.63399 1.6341 1.63424 1.63442 1.63462 1.63486 1.63512 1.63541 1.63572 1.63607 1.63644 1.63684 1.63726 1.63771 1.63817 1.63867 1.63918 1.63971 1.64026 1.64083 1.64141 1.64201 1.64263 1.64326 1.64389 1.64455 1.64521 1.64588 1.64655 1.64724 1.64792 1.64862 1.6493 1.64999 1.65065 1.6513 1.6519 1.65246 1.6529 1.6532 1.65323 1.65286 1.65181 1.64969 1.64585 1.63928 1.6284 1.61093 1.58369 1.54281 1.48433 1.40568 1.30746 1.19452 1.07518 0.958787 0.852886 0.761832 0.686835 0.626955 0.580151 0.544087 0.516548 0.49564 0.479816 0.467862 0.458833 0.452013 0.44685 0.442936 0.439956 0.437678 0.435924 0.434565 0.4335 0.432657 0.431979 0.431428 0.43097 0.430586 0.430257 0.429973 0.429722 0.429501 0.429302 0.429125 0.428966 0.428825 0.428699 0.428588 0.428492 0.428411 0.428344 0.42829 0.428251 0.428223 0.428207 0.428201 0.428308 0.428313 0.428327 0.428351 0.428387 0.428437 0.4285 0.428578 0.42867 0.428777 0.4289 0.429041 0.429199 0.429379 0.429582 0.429814 0.43008 0.430389 0.430753 0.431189 0.431717 0.432367 0.433179 0.434206 0.435517 0.437209 0.439408 0.442283 0.446057 0.451032 0.457601 0.466292 0.477791 0.493004 0.513097 0.539559 0.574218 0.619237 0.67693 0.749403 0.83781 0.941344 1.0562 1.17533 1.28959 1.39039 1.47223 1.53386 1.57741 1.60669 1.62561 1.63748 1.64471 1.64898 1.65137 1.65259 1.65308 1.65312 1.65287 1.65246 1.65193 1.65134 1.6507 1.65004 1.64936 1.64869 1.648 1.64732 1.64664 1.64597 1.64531 1.64465 1.644 1.64337 1.64275 1.64214 1.64154 1.64097 1.64041 1.63987 1.63934 1.63884 1.63835 1.6379 1.63745 1.63704 1.63665 1.63629 1.63595 1.63564 1.63536 1.63511 1.63488 1.63469 1.63452 1.63439 1.63428 1.63421 1.63416 1.63415 1.63417 1.63422 1.6343 1.63442 1.63455 1.63473 1.63493 1.63517 1.63542 1.63571 1.63603 1.63637 1.63674 1.63714 1.63755 1.638 1.63846 1.63895 1.63945 1.63998 1.64053 1.64109 1.64167 1.64227 1.64288 1.6435 1.64413 1.64479 1.64544 1.64611 1.64677 1.64746 1.64813 1.64882 1.64949 1.65017 1.65082 1.65146 1.65205 1.65257 1.65298 1.65323 1.65318 1.65268 1.65144 1.64903 1.64472 1.63743 1.62547 1.60641 1.57693 1.53312 1.47117 1.38899 1.28792 1.1735 1.05437 0.939648 0.836344 0.748206 0.675998 0.618544 0.573727 0.539232 0.512901 0.492911 0.477777 0.46634 0.457697 0.451164 0.446216 0.442462 0.439601 0.437413 0.435727 0.434419 0.433393 0.43258 0.431925 0.431392 0.430949 0.430576 0.430257 0.42998 0.429736 0.429519 0.429326 0.429153 0.428997 0.428858 0.428735 0.428626 0.428532 0.428453 0.428387 0.428335 0.428297 0.42827 0.428255 0.428249 0.428359 0.428364 0.428377 0.4284 0.428435 0.428483 0.428545 0.42862 0.428709 0.428814 0.428934 0.42907 0.429225 0.429399 0.429597 0.429822 0.43008 0.43038 0.430732 0.431153 0.431662 0.432288 0.433068 0.434054 0.435312 0.436933 0.439037 0.441787 0.445394 0.450144 0.456412 0.464698 0.475656 0.490147 0.509279 0.534474 0.567486 0.610408 0.665527 0.735008 0.82023 0.920831 1.03364 1.15225 1.26782 1.37151 1.45713 1.5226 1.56948 1.60134 1.62212 1.63527 1.64335 1.64816 1.65091 1.65236 1.653 1.65313 1.65295 1.65258 1.65208 1.65151 1.65088 1.65024 1.64957 1.6489 1.64822 1.64755 1.64688 1.64622 1.64555 1.64491 1.64426 1.64364 1.64301 1.64242 1.64182 1.64125 1.64069 1.64016 1.63963 1.63914 1.63865 1.6382 1.63776 1.63735 1.63696 1.63661 1.63627 1.63596 1.63568 1.63543 1.6352 1.63501 1.63485 1.63472 1.63461 1.63454 1.63449 1.63448 1.6345 1.63455 1.63463 1.63474 1.63488 1.63506 1.63525 1.63549 1.63574 1.63603 1.63634 1.63669 1.63705 1.63744 1.63786 1.6383 1.63876 1.63924 1.63974 1.64027 1.64081 1.64137 1.64194 1.64254 1.64314 1.64376 1.64439 1.64504 1.64568 1.64635 1.64701 1.64768 1.64835 1.64903 1.6497 1.65037 1.65101 1.65163 1.65219 1.65269 1.65306 1.65324 1.65309 1.65245 1.65098 1.6482 1.64334 1.6352 1.62196 1.60102 1.56895 1.5218 1.45601 1.37008 1.26613 1.15043 1.03185 0.919194 0.818831 0.733876 0.664653 0.609763 0.567033 0.534178 0.509107 0.490072 0.475657 0.464757 0.456515 0.450282 0.445557 0.441969 0.439233 0.437138 0.435522 0.434267 0.433281 0.432499 0.431868 0.431353 0.430925 0.430564 0.430253 0.429984 0.429746 0.429535 0.429346 0.429177 0.429024 0.428888 0.428767 0.428661 0.428569 0.428491 0.428426 0.428376 0.428338 0.428312 0.428297 0.428291 0.428404 0.428408 0.428421 0.428443 0.428477 0.428524 0.428584 0.428657 0.428744 0.428846 0.428963 0.429096 0.429246 0.429416 0.429608 0.429827 0.430077 0.430368 0.430708 0.431114 0.431604 0.432205 0.432954 0.433898 0.435101 0.43665 0.438657 0.441278 0.444712 0.449232 0.45519 0.463061 0.473462 0.487209 0.505352 0.52924 0.560549 0.601296 0.653724 0.72004 0.801824 0.899147 1.0095 1.12716 1.24374 1.35026 1.43982 1.50949 1.56013 1.59497 1.61793 1.63259 1.64168 1.64716 1.65033 1.65206 1.65287 1.65313 1.65302 1.6527 1.65223 1.65169 1.65108 1.65045 1.64979 1.64913 1.64846 1.6478 1.64713 1.64647 1.64581 1.64517 1.64453 1.64391 1.6433 1.6427 1.64211 1.64155 1.64099 1.64046 1.63994 1.63945 1.63897 1.63852 1.63808 1.63768 1.63729 1.63694 1.6366 1.6363 1.63602 1.63577 1.63554 1.63535 1.63519 1.63506 1.63495 1.63488 1.63483 1.63483 1.63484 1.63489 1.63497 1.63508 1.63522 1.6354 1.63559 1.63582 1.63608 1.63636 1.63667 1.63701 1.63737 1.63776 1.63817 1.63861 1.63907 1.63955 1.64005 1.64057 1.6411 1.64166 1.64223 1.64282 1.64342 1.64404 1.64466 1.6453 1.64594 1.6466 1.64726 1.64792 1.64859 1.64926 1.64992 1.65057 1.6512 1.65181 1.65235 1.65281 1.65313 1.65323 1.65297 1.65214 1.65039 1.64719 1.64166 1.6325 1.61774 1.59462 1.55956 1.50864 1.43865 1.34878 1.24203 1.12536 1.00775 0.897574 0.800495 0.718975 0.652909 0.6007 0.560136 0.528975 0.505204 0.487153 0.473477 0.46313 0.455301 0.449375 0.44488 0.441464 0.438855 0.436856 0.435312 0.434111 0.433166 0.432415 0.431808 0.431312 0.430898 0.430549 0.430248 0.429986 0.429754 0.429548 0.429363 0.429198 0.429048 0.428915 0.428796 0.428691 0.428601 0.428524 0.428461 0.428411 0.428374 0.428348 0.428333 0.428327 0.428442 0.428446 0.428458 0.42848 0.428513 0.428559 0.428617 0.428689 0.428774 0.428874 0.428988 0.429118 0.429264 0.42943 0.429617 0.429829 0.430072 0.430353 0.430681 0.431072 0.431543 0.432121 0.432837 0.433739 0.434886 0.436362 0.438271 0.440761 0.444019 0.448303 0.453946 0.461394 0.471228 0.484218 0.501352 0.523907 0.553474 0.591986 0.64163 0.704634 0.78275 0.876456 0.983898 1.10013 1.21732 1.32648 1.4201 1.4943 1.54913 1.58739 1.6129 1.62934 1.63963 1.64591 1.6496 1.65167 1.6527 1.65309 1.65307 1.65281 1.65239 1.65187 1.65129 1.65067 1.65003 1.64938 1.64871 1.64806 1.64739 1.64674 1.64609 1.64546 1.64482 1.64421 1.64359 1.643 1.64242 1.64186 1.6413 1.64078 1.64026 1.63977 1.6393 1.63885 1.63842 1.63802 1.63763 1.63728 1.63695 1.63665 1.63637 1.63612 1.6359 1.63571 1.63554 1.63541 1.63531 1.63524 1.63519 1.63518 1.6352 1.63525 1.63533 1.63544 1.63558 1.63575 1.63594 1.63617 1.63642 1.63671 1.63702 1.63735 1.63771 1.6381 1.63851 1.63894 1.63939 1.63987 1.64037 1.64089 1.64142 1.64197 1.64253 1.64312 1.64371 1.64433 1.64494 1.64558 1.64622 1.64687 1.64752 1.64818 1.64884 1.6495 1.65015 1.65079 1.6514 1.65199 1.6525 1.65292 1.65318 1.65319 1.65279 1.65174 1.64966 1.64593 1.6396 1.62923 1.61267 1.58699 1.5485 1.49339 1.41886 1.32495 1.2156 1.09835 0.9822 0.87495 0.781492 0.703636 0.640874 0.591439 0.5531 0.523672 0.501227 0.48418 0.471257 0.461474 0.454066 0.448453 0.444192 0.440949 0.438471 0.436569 0.435098 0.433952 0.433049 0.432329 0.431747 0.431269 0.43087 0.430531 0.43024 0.429985 0.429759 0.429558 0.429377 0.429215 0.429068 0.428937 0.42882 0.428718 0.428628 0.428553 0.42849 0.428441 0.428404 0.428379 0.428364 0.428358 0.428473 0.428477 0.428489 0.428511 0.428544 0.428588 0.428645 0.428716 0.428799 0.428897 0.429009 0.429136 0.429279 0.429441 0.429622 0.429829 0.430064 0.430336 0.430653 0.431029 0.431481 0.432034 0.432718 0.433579 0.43467 0.436071 0.437882 0.440239 0.44332 0.447367 0.452691 0.459712 0.468974 0.481199 0.497314 0.518521 0.546324 0.582563 0.629356 0.688927 0.763172 0.85294 0.957018 1.07128 1.18856 1.30006 1.39773 1.47675 1.53622 1.57837 1.60684 1.62539 1.63713 1.64436 1.64868 1.65115 1.65245 1.65301 1.65311 1.65292 1.65254 1.65206 1.6515 1.6509 1.65027 1.64963 1.64898 1.64833 1.64767 1.64703 1.64638 1.64575 1.64512 1.64451 1.6439 1.64332 1.64274 1.64218 1.64163 1.64111 1.6406 1.64011 1.63964 1.6392 1.63877 1.63837 1.63799 1.63764 1.63731 1.63701 1.63673 1.63649 1.63626 1.63608 1.63591 1.63578 1.63568 1.63561 1.63556 1.63556 1.63557 1.63562 1.6357 1.63581 1.63594 1.63612 1.63631 1.63654 1.63679 1.63707 1.63737 1.63771 1.63806 1.63845 1.63885 1.63929 1.63973 1.64021 1.6407 1.64122 1.64174 1.64229 1.64285 1.64343 1.64402 1.64463 1.64524 1.64587 1.6465 1.64715 1.64779 1.64845 1.6491 1.64975 1.65039 1.65102 1.65162 1.65217 1.65265 1.65303 1.65321 1.65311 1.65253 1.65122 1.64873 1.64437 1.63708 1.62526 1.60658 1.57792 1.53553 1.47576 1.39643 1.29849 1.18683 1.06952 0.955377 0.851505 0.76199 0.687999 0.628659 0.582065 0.545989 0.518317 0.497214 0.481179 0.469017 0.459803 0.45282 0.447523 0.443498 0.440431 0.438084 0.43628 0.434883 0.433792 0.43293 0.432242 0.431684 0.431225 0.43084 0.430513 0.430229 0.429982 0.429762 0.429565 0.429388 0.429229 0.429085 0.428956 0.428841 0.42874 0.428651 0.428577 0.428515 0.428466 0.428429 0.428404 0.428389 0.428383 0.428497 0.428502 0.428514 0.428535 0.428568 0.428612 0.428668 0.428737 0.428819 0.428915 0.429025 0.42915 0.42929 0.429448 0.429625 0.429826 0.430054 0.430317 0.430623 0.430985 0.431418 0.431947 0.4326 0.433418 0.434454 0.435781 0.437492 0.439717 0.442622 0.44643 0.451436 0.458029 0.466718 0.478177 0.493273 0.513129 0.539159 0.573107 0.617007 0.67306 0.743264 0.828796 0.929057 1.04076 1.15753 1.27091 1.37251 1.45654 1.52108 1.56763 1.59954 1.62059 1.63405 1.64244 1.64752 1.65048 1.6521 1.65287 1.65311 1.65301 1.65269 1.65225 1.65172 1.65114 1.65053 1.6499 1.64925 1.64861 1.64796 1.64733 1.64669 1.64606 1.64544 1.64483 1.64423 1.64365 1.64307 1.64252 1.64198 1.64146 1.64095 1.64047 1.64 1.63956 1.63913 1.63874 1.63836 1.63801 1.63768 1.63739 1.63711 1.63687 1.63665 1.63646 1.6363 1.63617 1.63606 1.636 1.63595 1.63594 1.63596 1.63601 1.63608 1.6362 1.63633 1.6365 1.63669 1.63692 1.63716 1.63745 1.63775 1.63808 1.63843 1.63882 1.63922 1.63965 1.64009 1.64056 1.64105 1.64156 1.64208 1.64263 1.64318 1.64376 1.64434 1.64495 1.64555 1.64618 1.6468 1.64745 1.64808 1.64873 1.64937 1.65002 1.65064 1.65126 1.65183 1.65236 1.6528 1.65311 1.6532 1.65296 1.65218 1.65054 1.64755 1.64243 1.63397 1.62042 1.59923 1.56712 1.52031 1.45547 1.37114 1.2693 1.1558 1.03904 0.927478 0.827437 0.742157 0.6722 0.616369 0.572656 0.538862 0.512955 0.493196 0.478176 0.466776 0.458131 0.451572 0.446593 0.442803 0.439913 0.437697 0.435992 0.434667 0.433632 0.432811 0.432155 0.43162 0.431179 0.430808 0.430492 0.430217 0.429976 0.429762 0.42957 0.429396 0.42924 0.429098 0.428971 0.428857 0.428757 0.42867 0.428596 0.428535 0.428486 0.428449 0.428424 0.428409 0.428403 0.428515 0.42852 0.428532 0.428554 0.428586 0.42863 0.428685 0.428754 0.428835 0.428929 0.429037 0.42916 0.429297 0.429451 0.429624 0.42982 0.430042 0.430296 0.430591 0.430939 0.431355 0.43186 0.432481 0.433258 0.434239 0.435492 0.437106 0.439199 0.441927 0.4455 0.450189 0.456357 0.464478 0.475177 0.489259 0.507772 0.532037 0.563695 0.604688 0.657167 0.7232 0.804236 0.900245 1.00877 1.12435 1.23902 1.34424 1.43337 1.50337 1.55485 1.59073 1.61472 1.63024 1.64003 1.64604 1.64961 1.65162 1.65266 1.65306 1.65307 1.65283 1.65244 1.65194 1.65139 1.65079 1.65018 1.64954 1.64891 1.64827 1.64764 1.64701 1.64639 1.64577 1.64517 1.64457 1.64399 1.64342 1.64288 1.64234 1.64182 1.64132 1.64084 1.64037 1.63993 1.63951 1.63912 1.63874 1.6384 1.63807 1.63778 1.6375 1.63726 1.63704 1.63686 1.6367 1.63657 1.63647 1.6364 1.63635 1.63634 1.63636 1.63641 1.63648 1.63659 1.63673 1.6369 1.63709 1.63731 1.63756 1.63784 1.63813 1.63847 1.63882 1.6392 1.63959 1.64002 1.64046 1.64093 1.64141 1.64192 1.64244 1.64298 1.64353 1.6441 1.64468 1.64528 1.64588 1.6465 1.64712 1.64775 1.64839 1.64903 1.64966 1.65029 1.6509 1.6515 1.65205 1.65255 1.65294 1.65317 1.65315 1.65274 1.6517 1.64966 1.64606 1.64 1.63014 1.61451 1.59037 1.55428 1.50252 1.43221 1.3428 1.23737 1.12261 1.00709 0.898733 0.802956 0.72217 0.656377 0.604108 0.563292 0.531778 0.507628 0.489205 0.475193 0.464549 0.45647 0.450333 0.445669 0.442114 0.439399 0.437313 0.435705 0.434454 0.433472 0.432693 0.432067 0.431556 0.431133 0.430776 0.43047 0.430204 0.429969 0.42976 0.429572 0.429401 0.429247 0.429108 0.428982 0.42887 0.428771 0.428684 0.428611 0.428549 0.428501 0.428464 0.428438 0.428423 0.428417 0.428527 0.428532 0.428544 0.428566 0.428599 0.428642 0.428698 0.428765 0.428846 0.428939 0.429045 0.429166 0.429301 0.429452 0.429621 0.42