# vtk DataFile Version 3.0
Immiscible displacement
ASCII
DATASET RECTILINEAR_GRID
DIMENSIONS 200 200 1
X_COORDINATES 200 double
1 2 3 4 5 6 7 8 9 10 11 12 13 14 15 16 17 18 19 20 21 22 23 24 25 26 27 28 29 30 31 32 33 34 35 36 37 38 39 40 41 42 43 44 45 46 47 48 49 50 51 52 53 54 55 56 57 58 59 60 61 62 63 64 65 66 67 68 69 70 71 72 73 74 75 76 77 78 79 80 81 82 83 84 85 86 87 88 89 90 91 92 93 94 95 96 97 98 99 100 101 102 103 104 105 106 107 108 109 110 111 112 113 114 115 116 117 118 119 120 121 122 123 124 125 126 127 128 129 130 131 132 133 134 135 136 137 138 139 140 141 142 143 144 145 146 147 148 149 150 151 152 153 154 155 156 157 158 159 160 161 162 163 164 165 166 167 168 169 170 171 172 173 174 175 176 177 178 179 180 181 182 183 184 185 186 187 188 189 190 191 192 193 194 195 196 197 198 199 200 
Y_COORDINATES 200 double
1 2 3 4 5 6 7 8 9 10 11 12 13 14 15 16 17 18 19 20 21 22 23 24 25 26 27 28 29 30 31 32 33 34 35 36 37 38 39 40 41 42 43 44 45 46 47 48 49 50 51 52 53 54 55 56 57 58 59 60 61 62 63 64 65 66 67 68 69 70 71 72 73 74 75 76 77 78 79 80 81 82 83 84 85 86 87 88 89 90 91 92 93 94 95 96 97 98 99 100 101 102 103 104 105 106 107 108 109 110 111 112 113 114 115 116 117 118 119 120 121 122 123 124 125 126 127 128 129 130 131 132 133 134 135 136 137 138 139 140 141 142 143 144 145 146 147 148 149 150 151 152 153 154 155 156 157 158 159 160 161 162 163 164 165 166 167 168 169 170 171 172 173 174 175 176 177 178 179 180 181 182 183 184 185 186 187 188 189 190 191 192 193 194 195 196 197 198 199 200 
Z_COORDINATES 1 double
0
POINT_DATA 40000
SCALARS rho double 1
LOOKUP_TABLE default
0.42 0.42 0.42 0.42 0.42 0.419999 0.420001 0.419999 0.420002 0.419999 0.420006 0.419997 0.420001 0.419976 0.419981 0.419959 0.420021 0.420079 0.420269 0.420382 0.420501 0.420227 0.419634 0.418292 0.416568 0.41437 0.412671 0.411863 0.413391 0.417837 0.42667 0.440451 0.460642 0.488269 0.525406 0.574347 0.638075 0.719617 0.82063 0.94051 1.07354 1.21027 1.33785 1.44667 1.53117 1.593 1.63571 1.66501 1.68421 1.6967 1.70346 1.70618 1.70516 1.70186 1.69686 1.69165 1.68677 1.68314 1.68071 1.67956 1.67919 1.67934 1.6796 1.67986 1.67999 1.68005 1.68004 1.68002 1.68 1.68 1.68 1.68 1.68 1.68 1.68 1.68 1.68 1.68 1.68 1.68 1.68 1.68 1.68 1.68 1.68 1.68 1.68 1.68 1.68 1.68 1.68 1.68 1.68 1.68 1.68 1.68 1.68 1.68 1.68 1.68 1.68 1.68 1.68 1.68 1.68 1.68 1.68 1.68 1.68 1.68 1.68 1.68 1.68 1.68 1.68 1.68 1.68 1.68 1.68 1.68 1.68 1.68 1.68 1.68 1.68 1.68 1.68 1.68 1.68 1.68 1.68 1.68002 1.68004 1.68005 1.67999 1.67986 1.6796 1.67934 1.67919 1.67956 1.68071 1.68314 1.68677 1.69165 1.69686 1.70186 1.70516 1.70618 1.70346 1.6967 1.68421 1.66501 1.63571 1.593 1.53117 1.44667 1.33785 1.21027 1.07354 0.94051 0.82063 0.719617 0.638075 0.574347 0.525406 0.488269 0.460642 0.440451 0.42667 0.417837 0.413391 0.411863 0.412671 0.41437 0.416568 0.418292 0.419634 0.420227 0.420501 0.420382 0.420269 0.420079 0.420021 0.419959 0.419981 0.419976 0.420001 0.419997 0.420006 0.419999 0.420002 0.419999 0.420001 0.419999 0.42 0.42 0.42 0.42 0.42 0.42 0.42 0.42 0.42 0.419999 0.420001 0.419999 0.420002 0.419998 0.420004 0.419997 0.420008 0.419991 0.420004 0.419967 0.41999 0.419958 0.420055 0.420096 0.420317 0.42036 0.420464 0.420041 0.419407 0.417922 0.416281 0.414125 0.412778 0.412265 0.414354 0.419181 0.428539 0.442553 0.46304 0.490677 0.527862 0.576617 0.640105 0.721144 0.821392 0.940226 1.07194 1.20749 1.33404 1.44249 1.52684 1.58902 1.63195 1.66176 1.68125 1.69436 1.70159 1.70512 1.70471 1.70218 1.6976 1.69274 1.68782 1.68408 1.68133 1.67993 1.6793 1.67934 1.67952 1.6798 1.67994 1.68004 1.68004 1.68003 1.68001 1.68 1.68 1.68 1.68 1.68 1.68 1.68 1.68 1.68 1.68 1.68 1.68 1.68 1.68 1.68 1.68 1.68 1.68 1.68 1.68 1.68 1.68 1.68 1.68 1.68 1.68 1.68 1.68 1.68 1.68 1.68 1.68 1.68 1.68 1.68 1.68 1.68 1.68 1.68 1.68 1.68 1.68 1.68 1.68 1.68 1.68 1.68 1.68 1.68 1.68 1.68 1.68 1.68 1.68 1.68 1.68 1.68 1.68 1.68 1.68 1.68 1.68001 1.68003 1.68004 1.68004 1.67994 1.6798 1.67952 1.67934 1.6793 1.67993 1.68133 1.68408 1.68782 1.69274 1.6976 1.70218 1.70471 1.70512 1.70159 1.69436 1.68125 1.66176 1.63195 1.58902 1.52684 1.44249 1.33404 1.20749 1.07194 0.940226 0.821392 0.721144 0.640105 0.576617 0.527862 0.490677 0.46304 0.442553 0.428539 0.419181 0.414354 0.412265 0.412778 0.414125 0.416281 0.417922 0.419407 0.420041 0.420464 0.42036 0.420317 0.420096 0.420055 0.419958 0.41999 0.419967 0.420004 0.419991 0.420008 0.419997 0.420004 0.419998 0.420002 0.419999 0.420001 0.419999 0.42 0.42 0.42 0.42 0.42 0.42 0.42 0.419999 0.420001 0.419999 0.420002 0.419998 0.420005 0.419997 0.420008 0.41999 0.42 0.419965 0.419991 0.419972 0.420081 0.420137 0.420345 0.420356 0.420365 0.419832 0.419054 0.417503 0.415867 0.413925 0.412934 0.413008 0.41575 0.42132 0.431319 0.445887 0.466729 0.494537 0.531704 0.580179 0.643169 0.723248 0.822189 0.939116 1.06879 1.20221 1.32736 1.43501 1.51948 1.5821 1.62584 1.65639 1.67677 1.69072 1.69899 1.70353 1.70421 1.70258 1.69872 1.69421 1.68935 1.68536 1.68224 1.68044 1.67949 1.67933 1.67944 1.67971 1.67989 1.68002 1.68004 1.68004 1.68001 1.68001 1.68 1.68 1.68 1.68 1.68 1.68 1.68 1.68 1.68 1.68 1.68 1.68 1.68 1.68 1.68 1.68 1.68 1.68 1.68 1.68 1.68 1.68 1.68 1.68 1.68 1.68 1.68 1.68 1.68 1.68 1.68 1.68 1.68 1.68 1.68 1.68 1.68 1.68 1.68 1.68 1.68 1.68 1.68 1.68 1.68 1.68 1.68 1.68 1.68 1.68 1.68 1.68 1.68 1.68 1.68 1.68 1.68 1.68 1.68 1.68001 1.68001 1.68004 1.68004 1.68002 1.67989 1.67971 1.67944 1.67933 1.67949 1.68044 1.68224 1.68536 1.68935 1.69421 1.69872 1.70258 1.70421 1.70353 1.69899 1.69072 1.67677 1.65639 1.62584 1.5821 1.51948 1.43501 1.32736 1.20221 1.06879 0.939116 0.822189 0.723248 0.643169 0.580179 0.531704 0.494537 0.466729 0.445887 0.431319 0.42132 0.41575 0.413008 0.412934 0.413925 0.415867 0.417503 0.419054 0.419832 0.420365 0.420356 0.420345 0.420137 0.420081 0.419972 0.419991 0.419965 0.42 0.41999 0.420008 0.419997 0.420005 0.419998 0.420002 0.419999 0.420001 0.419999 0.42 0.42 0.42 0.42 0.42 0.42 0.42 0.419999 0.420001 0.419998 0.420002 0.419998 0.420005 0.419997 0.420008 0.419988 0.419998 0.419962 0.419994 0.419984 0.420108 0.420171 0.420373 0.420341 0.420267 0.419615 0.418715 0.41709 0.415494 0.413764 0.41319 0.413872 0.417366 0.423739 0.434508 0.449709 0.471004 0.499014 0.536134 0.584221 0.646458 0.725253 0.822373 0.936892 1.06392 1.19484 1.31826 1.42514 1.50985 1.57326 1.61811 1.6498 1.67136 1.68648 1.69599 1.70176 1.70366 1.70305 1.69996 1.69584 1.69102 1.68678 1.68324 1.681 1.67971 1.67933 1.67935 1.67961 1.67982 1.67999 1.68003 1.68005 1.68002 1.68001 1.68 1.68 1.68 1.68 1.68 1.68 1.68 1.68 1.68 1.68 1.68 1.68 1.68 1.68 1.68 1.68 1.68 1.68 1.68 1.68 1.68 1.68 1.68 1.68 1.68 1.68 1.68 1.68 1.68 1.68 1.68 1.68 1.68 1.68 1.68 1.68 1.68 1.68 1.68 1.68 1.68 1.68 1.68 1.68 1.68 1.68 1.68 1.68 1.68 1.68 1.68 1.68 1.68 1.68 1.68 1.68 1.68 1.68 1.68 1.68001 1.68002 1.68005 1.68003 1.67999 1.67982 1.67961 1.67935 1.67933 1.67971 1.681 1.68324 1.68678 1.69102 1.69584 1.69996 1.70305 1.70366 1.70176 1.69599 1.68648 1.67136 1.6498 1.61811 1.57326 1.50985 1.42514 1.31826 1.19484 1.06392 0.936892 0.822373 0.725253 0.646458 0.584221 0.536134 0.499014 0.471004 0.449709 0.434508 0.423739 0.417366 0.413872 0.41319 0.413764 0.415494 0.41709 0.418715 0.419615 0.420267 0.420341 0.420373 0.420171 0.420108 0.419984 0.419994 0.419962 0.419998 0.419988 0.420008 0.419997 0.420005 0.419998 0.420002 0.419998 0.420001 0.419999 0.42 0.42 0.42 0.42 0.42 0.42 0.42 0.419999 0.420001 0.419998 0.420002 0.419998 0.420005 0.419997 0.420007 0.419987 0.419995 0.41996 0.419995 0.419994 0.420128 0.420202 0.420393 0.420329 0.42018 0.419432 0.418421 0.416742 0.415182 0.413663 0.413475 0.414749 0.418962 0.42614 0.437675 0.453541 0.475297 0.503519 0.54053 0.588119 0.649382 0.726604 0.821526 0.933258 1.05729 1.1855 1.30715 1.41337 1.49855 1.56305 1.60934 1.64244 1.66546 1.68193 1.69284 1.69992 1.70308 1.70351 1.7012 1.69747 1.6927 1.6882 1.68427 1.68159 1.67995 1.67934 1.67926 1.67952 1.67976 1.67996 1.68003 1.68005 1.68003 1.68001 1.68 1.68 1.68 1.68 1.68 1.68 1.68 1.68 1.68 1.68 1.68 1.68 1.68 1.68 1.68 1.68 1.68 1.68 1.68 1.68 1.68 1.68 1.68 1.68 1.68 1.68 1.68 1.68 1.68 1.68 1.68 1.68 1.68 1.68 1.68 1.68 1.68 1.68 1.68 1.68 1.68 1.68 1.68 1.68 1.68 1.68 1.68 1.68 1.68 1.68 1.68 1.68 1.68 1.68 1.68 1.68 1.68 1.68 1.68 1.68001 1.68003 1.68005 1.68003 1.67996 1.67976 1.67952 1.67926 1.67934 1.67995 1.68159 1.68427 1.6882 1.6927 1.69747 1.7012 1.70351 1.70308 1.69992 1.69284 1.68193 1.66546 1.64244 1.60934 1.56305 1.49855 1.41337 1.30715 1.1855 1.05729 0.933258 0.821526 0.726604 0.649382 0.588119 0.54053 0.503519 0.475297 0.453541 0.437675 0.42614 0.418962 0.414749 0.413475 0.413663 0.415182 0.416742 0.418421 0.419432 0.42018 0.420329 0.420393 0.420202 0.420128 0.419994 0.419995 0.41996 0.419995 0.419987 0.420007 0.419997 0.420005 0.419998 0.420002 0.419998 0.420001 0.419999 0.42 0.42 0.42 0.42 0.42 0.42 0.42 0.419999 0.420001 0.419998 0.420002 0.419998 0.420005 0.419998 0.420007 0.419986 0.419993 0.419959 0.419994 0.420002 0.420142 0.420226 0.420409 0.420325 0.420114 0.419295 0.418191 0.416472 0.414936 0.413597 0.413733 0.415524 0.420371 0.428281 0.440516 0.457007 0.479182 0.507575 0.544393 0.591362 0.651452 0.726861 0.819298 0.927998 1.04886 1.17432 1.29426 1.40004 1.48595 1.55185 1.59985 1.63463 1.65928 1.67724 1.68961 1.69804 1.70246 1.70391 1.70237 1.69903 1.69434 1.68961 1.6853 1.6822 1.68021 1.67937 1.67919 1.67942 1.67969 1.67993 1.68003 1.68006 1.68004 1.68002 1.68 1.68 1.68 1.68 1.68 1.68 1.68 1.68 1.68 1.68 1.68 1.68 1.68 1.68 1.68 1.68 1.68 1.68 1.68 1.68 1.68 1.68 1.68 1.68 1.68 1.68 1.68 1.68 1.68 1.68 1.68 1.68 1.68 1.68 1.68 1.68 1.68 1.68 1.68 1.68 1.68 1.68 1.68 1.68 1.68 1.68 1.68 1.68 1.68 1.68 1.68 1.68 1.68 1.68 1.68 1.68 1.68 1.68 1.68 1.68002 1.68004 1.68006 1.68003 1.67993 1.67969 1.67942 1.67919 1.67937 1.68021 1.6822 1.6853 1.68961 1.69434 1.69903 1.70237 1.70391 1.70246 1.69804 1.68961 1.67724 1.65928 1.63463 1.59985 1.55185 1.48595 1.40004 1.29426 1.17432 1.04886 0.927998 0.819298 0.726861 0.651452 0.591362 0.544393 0.507575 0.479182 0.457007 0.440516 0.428281 0.420371 0.415524 0.413733 0.413597 0.414936 0.416472 0.418191 0.419295 0.420114 0.420325 0.420409 0.420226 0.420142 0.420002 0.419994 0.419959 0.419993 0.419986 0.420007 0.419998 0.420005 0.419998 0.420002 0.419998 0.420001 0.419999 0.42 0.42 0.42 0.42 0.42 0.42 0.42 0.419999 0.420001 0.419999 0.420002 0.419998 0.420005 0.419998 0.420006 0.419986 0.41999 0.419959 0.419992 0.420008 0.420148 0.420245 0.42042 0.42033 0.420074 0.41921 0.41803 0.416282 0.414747 0.413541 0.41391 0.416114 0.421462 0.429988 0.442806 0.459837 0.482343 0.510837 0.547359 0.593584 0.652321 0.725718 0.815456 0.920963 1.03858 1.16133 1.27973 1.38532 1.47227 1.53986 1.58985 1.62651 1.65294 1.67247 1.68635 1.69611 1.70177 1.70421 1.70342 1.70049 1.6959 1.69098 1.68634 1.68283 1.6805 1.67942 1.67912 1.67932 1.67962 1.67989 1.68002 1.68006 1.68005 1.68002 1.68 1.68 1.68 1.68 1.68 1.68 1.68 1.68 1.68 1.68 1.68 1.68 1.68 1.68 1.68 1.68 1.68 1.68 1.68 1.68 1.68 1.68 1.68 1.68 1.68 1.68 1.68 1.68 1.68 1.68 1.68 1.68 1.68 1.68 1.68 1.68 1.68 1.68 1.68 1.68 1.68 1.68 1.68 1.68 1.68 1.68 1.68 1.68 1.68 1.68 1.68 1.68 1.68 1.68 1.68 1.68 1.68 1.68 1.68 1.68002 1.68005 1.68006 1.68002 1.67989 1.67962 1.67932 1.67912 1.67942 1.6805 1.68283 1.68634 1.69098 1.6959 1.70049 1.70342 1.70421 1.70177 1.69611 1.68635 1.67247 1.65294 1.62651 1.58985 1.53986 1.47227 1.38532 1.27973 1.16133 1.03858 0.920963 0.815456 0.725718 0.652321 0.593584 0.547359 0.510837 0.482343 0.459837 0.442806 0.429988 0.421462 0.416114 0.41391 0.413541 0.414747 0.416282 0.41803 0.41921 0.420074 0.42033 0.42042 0.420245 0.420148 0.420008 0.419992 0.419959 0.41999 0.419986 0.420006 0.419998 0.420005 0.419998 0.420002 0.419999 0.420001 0.419999 0.42 0.42 0.42 0.42 0.42 0.42 0.42 0.419999 0.420001 0.419999 0.420001 0.419999 0.420005 0.419999 0.420005 0.419987 0.419988 0.41996 0.419989 0.42001 0.420149 0.420258 0.420428 0.420345 0.420061 0.419177 0.417938 0.416168 0.414605 0.413477 0.413975 0.416464 0.422152 0.431141 0.444386 0.461831 0.484546 0.513035 0.549137 0.594486 0.65171 0.722931 0.809823 0.912052 1.02642 1.14658 1.26365 1.36933 1.45763 1.52721 1.57944 1.61816 1.64649 1.66765 1.68303 1.69409 1.70095 1.70435 1.70432 1.70181 1.69739 1.69234 1.6874 1.68351 1.68086 1.67952 1.67908 1.67923 1.67954 1.67984 1.68 1.68006 1.68005 1.68003 1.68001 1.68 1.67999 1.68 1.68 1.68 1.68 1.68 1.68 1.68 1.68 1.68 1.68 1.68 1.68 1.68 1.68 1.68 1.68 1.68 1.68 1.68 1.68 1.68 1.68 1.68 1.68 1.68 1.68 1.68 1.68 1.68 1.68 1.68 1.68 1.68 1.68 1.68 1.68 1.68 1.68 1.68 1.68 1.68 1.68 1.68 1.68 1.68 1.68 1.68 1.68 1.68 1.68 1.68 1.68 1.68 1.67999 1.68 1.68001 1.68003 1.68005 1.68006 1.68 1.67984 1.67954 1.67923 1.67908 1.67952 1.68086 1.68351 1.6874 1.69234 1.69739 1.70181 1.70432 1.70435 1.70095 1.69409 1.68303 1.66765 1.64649 1.61816 1.57944 1.52721 1.45763 1.36933 1.26365 1.14658 1.02642 0.912052 0.809823 0.722931 0.65171 0.594486 0.549137 0.513035 0.484546 0.461831 0.444386 0.431141 0.422152 0.416464 0.413975 0.413477 0.414605 0.416168 0.417938 0.419177 0.420061 0.420345 0.420428 0.420258 0.420149 0.42001 0.419989 0.41996 0.419988 0.419987 0.420005 0.419999 0.420005 0.419999 0.420001 0.419999 0.420001 0.419999 0.42 0.42 0.42 0.42 0.42 0.42 0.42 0.42 0.42 0.419999 0.420001 0.419999 0.420004 0.42 0.420005 0.419989 0.419986 0.419961 0.419984 0.420011 0.420143 0.420266 0.420433 0.420369 0.420071 0.419193 0.41791 0.416125 0.414508 0.413399 0.413915 0.416549 0.422404 0.43168 0.44517 0.462872 0.485647 0.514003 0.549555 0.593898 0.649467 0.71838 0.802317 0.90122 1.01237 1.13006 1.24601 1.35206 1.442 1.51388 1.5686 1.60958 1.63991 1.66273 1.6796 1.69192 1.69994 1.70428 1.70503 1.70299 1.6988 1.69368 1.68852 1.68428 1.68129 1.67967 1.67907 1.67915 1.67945 1.67978 1.67997 1.68006 1.68006 1.68004 1.68001 1.68 1.67999 1.68 1.68 1.68 1.68 1.68 1.68 1.68 1.68 1.68 1.68 1.68 1.68 1.68 1.68 1.68 1.68 1.68 1.68 1.68 1.68 1.68 1.68 1.68 1.68 1.68 1.68 1.68 1.68 1.68 1.68 1.68 1.68 1.68 1.68 1.68 1.68 1.68 1.68 1.68 1.68 1.68 1.68 1.68 1.68 1.68 1.68 1.68 1.68 1.68 1.68 1.68 1.68 1.68 1.67999 1.68 1.68001 1.68004 1.68006 1.68006 1.67997 1.67978 1.67945 1.67915 1.67907 1.67967 1.68129 1.68428 1.68852 1.69368 1.6988 1.70299 1.70503 1.70428 1.69994 1.69192 1.6796 1.66273 1.63991 1.60958 1.5686 1.51388 1.442 1.35206 1.24601 1.13006 1.01237 0.90122 0.802317 0.71838 0.649467 0.593898 0.549555 0.514003 0.485647 0.462872 0.44517 0.43168 0.422404 0.416549 0.413915 0.413399 0.414508 0.416125 0.41791 0.419193 0.420071 0.420369 0.420433 0.420266 0.420143 0.420011 0.419984 0.419961 0.419986 0.419989 0.420005 0.42 0.420004 0.419999 0.420001 0.419999 0.42 0.42 0.42 0.42 0.42 0.42 0.42 0.42 0.42 0.42 0.42 0.419999 0.420001 0.419999 0.420003 0.420001 0.420004 0.419991 0.419985 0.419962 0.419978 0.420009 0.420133 0.420268 0.420434 0.420398 0.420102 0.419252 0.417943 0.416151 0.414458 0.413312 0.413743 0.41638 0.422221 0.431591 0.445129 0.462906 0.485574 0.513648 0.548509 0.591715 0.645508 0.712008 0.792924 0.888484 0.996473 1.11181 1.22682 1.33349 1.42536 1.49982 1.55728 1.60069 1.63313 1.65764 1.67598 1.68953 1.69868 1.70394 1.70549 1.70399 1.70013 1.69504 1.68972 1.68516 1.68184 1.67991 1.67911 1.67908 1.67936 1.6797 1.67994 1.68005 1.68006 1.68004 1.68002 1.68 1.67999 1.68 1.68 1.68 1.68 1.68 1.68 1.68 1.68 1.68 1.68 1.68 1.68 1.68 1.68 1.68 1.68 1.68 1.68 1.68 1.68 1.68 1.68 1.68 1.68 1.68 1.68 1.68 1.68 1.68 1.68 1.68 1.68 1.68 1.68 1.68 1.68 1.68 1.68 1.68 1.68 1.68 1.68 1.68 1.68 1.68 1.68 1.68 1.68 1.68 1.68 1.68 1.68 1.68 1.67999 1.68 1.68002 1.68004 1.68006 1.68005 1.67994 1.6797 1.67936 1.67908 1.67911 1.67991 1.68184 1.68516 1.68972 1.69504 1.70013 1.70399 1.70549 1.70394 1.69868 1.68953 1.67598 1.65764 1.63313 1.60069 1.55728 1.49982 1.42536 1.33349 1.22682 1.11181 0.996473 0.888484 0.792924 0.712008 0.645508 0.591715 0.548509 0.513648 0.485574 0.462906 0.445129 0.431591 0.422221 0.41638 0.413743 0.413312 0.414458 0.416151 0.417943 0.419252 0.420102 0.420398 0.420434 0.420268 0.420133 0.420009 0.419978 0.419962 0.419985 0.419991 0.420004 0.420001 0.420003 0.419999 0.420001 0.419999 0.42 0.42 0.42 0.42 0.42 0.42 0.42 0.42 0.42 0.42 0.42 0.419999 0.42 0.42 0.420003 0.420002 0.420003 0.419993 0.419984 0.419964 0.419972 0.420005 0.420119 0.420264 0.42043 0.420429 0.42015 0.419347 0.418034 0.416245 0.414465 0.413232 0.413488 0.415991 0.421647 0.430915 0.444301 0.461957 0.484342 0.511977 0.546013 0.58796 0.639873 0.703877 0.781718 0.873917 0.978767 1.09183 1.20602 1.31348 1.40753 1.48484 1.5453 1.59134 1.626 1.65225 1.67207 1.68682 1.69708 1.70329 1.70568 1.70481 1.70136 1.69642 1.69102 1.68619 1.68253 1.68026 1.67922 1.67903 1.67927 1.67962 1.67989 1.68003 1.68007 1.68005 1.68002 1.68 1.68 1.68 1.68 1.68 1.68 1.68 1.68 1.68 1.68 1.68 1.68 1.68 1.68 1.68 1.68 1.68 1.68 1.68 1.68 1.68 1.68 1.68 1.68 1.68 1.68 1.68 1.68 1.68 1.68 1.68 1.68 1.68 1.68 1.68 1.68 1.68 1.68 1.68 1.68 1.68 1.68 1.68 1.68 1.68 1.68 1.68 1.68 1.68 1.68 1.68 1.68 1.68 1.68 1.68 1.68 1.68 1.68002 1.68005 1.68007 1.68003 1.67989 1.67962 1.67927 1.67903 1.67922 1.68026 1.68253 1.68619 1.69102 1.69642 1.70136 1.70481 1.70568 1.70329 1.69708 1.68682 1.67207 1.65225 1.626 1.59134 1.5453 1.48484 1.40753 1.31348 1.20602 1.09183 0.978767 0.873917 0.781718 0.703877 0.639873 0.58796 0.546013 0.511977 0.484342 0.461957 0.444301 0.430915 0.421647 0.415991 0.413488 0.413232 0.414465 0.416245 0.418034 0.419347 0.42015 0.420429 0.42043 0.420264 0.420119 0.420005 0.419972 0.419964 0.419984 0.419993 0.420003 0.420002 0.420003 0.42 0.42 0.419999 0.42 0.42 0.42 0.42 0.42 0.42 0.42 0.42 0.42 0.42 0.42 0.42 0.42 0.42 0.420002 0.420002 0.420003 0.419995 0.419984 0.419966 0.419967 0.42 0.420102 0.420254 0.420421 0.420458 0.420209 0.419469 0.418177 0.416403 0.414538 0.413183 0.413194 0.41544 0.420756 0.42973 0.442768 0.460104 0.48203 0.509066 0.542148 0.582727 0.632681 0.694127 0.768857 0.857677 0.959381 1.07017 1.18358 1.29193 1.38833 1.46875 1.53245 1.58134 1.61836 1.64643 1.66774 1.6837 1.69507 1.70225 1.70555 1.7054 1.7025 1.69782 1.69244 1.68739 1.68339 1.68076 1.67942 1.67903 1.67918 1.67951 1.67981 1.67999 1.68006 1.68006 1.68003 1.68001 1.68 1.68 1.68 1.68 1.68 1.68 1.68 1.68 1.68 1.68 1.68 1.68 1.68 1.68 1.68 1.68 1.68 1.68 1.68 1.68 1.68 1.68 1.68 1.68 1.68 1.68 1.68 1.68 1.68 1.68 1.68 1.68 1.68 1.68 1.68 1.68 1.68 1.68 1.68 1.68 1.68 1.68 1.68 1.68 1.68 1.68 1.68 1.68 1.68 1.68 1.68 1.68 1.68 1.68 1.68 1.68001 1.68003 1.68006 1.68006 1.67999 1.67981 1.67951 1.67918 1.67903 1.67942 1.68076 1.68339 1.68739 1.69244 1.69782 1.7025 1.7054 1.70555 1.70225 1.69507 1.6837 1.66774 1.64643 1.61836 1.58134 1.53245 1.46875 1.38833 1.29193 1.18358 1.07017 0.959381 0.857677 0.768857 0.694127 0.632681 0.582727 0.542148 0.509066 0.48203 0.460104 0.442768 0.42973 0.420756 0.41544 0.413194 0.413183 0.414538 0.416403 0.418177 0.419469 0.420209 0.420458 0.420421 0.420254 0.420102 0.42 0.419967 0.419966 0.419984 0.419995 0.420003 0.420002 0.420002 0.42 0.42 0.42 0.42 0.42 0.42 0.42 0.42 0.42 0.42 0.42 0.42 0.42 0.42 0.42 0.42 0.42 0.420001 0.420003 0.420003 0.419997 0.419985 0.419969 0.419963 0.419994 0.420083 0.420238 0.420407 0.420481 0.420274 0.419611 0.418364 0.416623 0.414686 0.413186 0.412906 0.414793 0.419639 0.428144 0.440656 0.457481 0.478786 0.505072 0.537088 0.576205 0.624137 0.682976 0.754558 0.839951 0.938441 1.04686 1.15941 1.26864 1.36748 1.4512 1.51841 1.57039 1.60996 1.63998 1.66284 1.68006 1.69257 1.70078 1.70505 1.70574 1.70352 1.69923 1.69398 1.68878 1.68447 1.68143 1.67974 1.67909 1.6791 1.6794 1.67972 1.67994 1.68005 1.68006 1.68004 1.68002 1.68 1.68 1.68 1.68 1.68 1.68 1.68 1.68 1.68 1.68 1.68 1.68 1.68 1.68 1.68 1.68 1.68 1.68 1.68 1.68 1.68 1.68 1.68 1.68 1.68 1.68 1.68 1.68 1.68 1.68 1.68 1.68 1.68 1.68 1.68 1.68 1.68 1.68 1.68 1.68 1.68 1.68 1.68 1.68 1.68 1.68 1.68 1.68 1.68 1.68 1.68 1.68 1.68 1.68 1.68 1.68002 1.68004 1.68006 1.68005 1.67994 1.67972 1.6794 1.6791 1.67909 1.67974 1.68143 1.68447 1.68878 1.69398 1.69923 1.70352 1.70574 1.70505 1.70078 1.69257 1.68006 1.66284 1.63998 1.60996 1.57039 1.51841 1.4512 1.36748 1.26864 1.15941 1.04686 0.938441 0.839951 0.754558 0.682976 0.624137 0.576205 0.537088 0.505072 0.478786 0.457481 0.440656 0.428144 0.419639 0.414793 0.412906 0.413186 0.414686 0.416623 0.418364 0.419611 0.420274 0.420481 0.420407 0.420238 0.420083 0.419994 0.419963 0.419969 0.419985 0.419997 0.420003 0.420003 0.420001 0.42 0.42 0.42 0.42 0.42 0.42 0.42 0.42 0.42 0.42 0.42 0.42 0.42 0.42 0.42 0.42 0.42 0.420001 0.420003 0.420002 0.419999 0.419986 0.419972 0.419961 0.419987 0.420063 0.420216 0.420387 0.420495 0.420339 0.419763 0.418587 0.416897 0.414912 0.413262 0.412666 0.414119 0.418394 0.426279 0.438109 0.45425 0.474786 0.500187 0.531043 0.568625 0.614495 0.670696 0.739098 0.821004 0.916161 1.02205 1.13352 1.24349 1.34474 1.43191 1.50285 1.55821 1.60055 1.6327 1.65723 1.67578 1.68948 1.6988 1.70414 1.70579 1.70438 1.70064 1.69564 1.69037 1.68576 1.68231 1.68021 1.67923 1.67906 1.67928 1.67961 1.67987 1.68002 1.68006 1.68005 1.68003 1.68001 1.68 1.68 1.68 1.68 1.68 1.68 1.68 1.68 1.68 1.68 1.68 1.68 1.68 1.68 1.68 1.68 1.68 1.68 1.68 1.68 1.68 1.68 1.68 1.68 1.68 1.68 1.68 1.68 1.68 1.68 1.68 1.68 1.68 1.68 1.68 1.68 1.68 1.68 1.68 1.68 1.68 1.68 1.68 1.68 1.68 1.68 1.68 1.68 1.68 1.68 1.68 1.68 1.68 1.68001 1.68003 1.68005 1.68006 1.68002 1.67987 1.67961 1.67928 1.67906 1.67923 1.68021 1.68231 1.68576 1.69037 1.69564 1.70064 1.70438 1.70579 1.70414 1.6988 1.68948 1.67578 1.65723 1.6327 1.60055 1.55821 1.50285 1.43191 1.34474 1.24349 1.13352 1.02205 0.916161 0.821004 0.739098 0.670696 0.614495 0.568625 0.531043 0.500187 0.474786 0.45425 0.438109 0.426279 0.418394 0.414119 0.412666 0.413262 0.414912 0.416897 0.418587 0.419763 0.420339 0.420495 0.420387 0.420216 0.420063 0.419987 0.419961 0.419972 0.419986 0.419999 0.420002 0.420003 0.420001 0.42 0.42 0.42 0.42 0.42 0.42 0.42 0.42 0.42 0.42 0.42 0.42 0.42 0.42 0.42 0.42 0.42 0.420001 0.420003 0.420002 0.420001 0.419988 0.419974 0.419959 0.41998 0.420044 0.42019 0.420361 0.4205 0.4204 0.419916 0.418835 0.417217 0.415214 0.413423 0.412509 0.413481 0.417112 0.424259 0.43528 0.450588 0.47023 0.49463 0.524249 0.560241 0.60402 0.657558 0.722737 0.80106 0.892705 0.995782 1.10585 1.21626 1.31978 1.41046 1.48535 1.54441 1.58983 1.62436 1.65073 1.67075 1.68573 1.69624 1.70274 1.70549 1.70502 1.70198 1.69737 1.69215 1.6873 1.68343 1.68087 1.67951 1.67907 1.67916 1.67947 1.67977 1.67997 1.68005 1.68006 1.68004 1.68002 1.68 1.68 1.68 1.68 1.68 1.68 1.68 1.68 1.68 1.68 1.68 1.68 1.68 1.68 1.68 1.68 1.68 1.68 1.68 1.68 1.68 1.68 1.68 1.68 1.68 1.68 1.68 1.68 1.68 1.68 1.68 1.68 1.68 1.68 1.68 1.68 1.68 1.68 1.68 1.68 1.68 1.68 1.68 1.68 1.68 1.68 1.68 1.68 1.68 1.68 1.68 1.68 1.68 1.68002 1.68004 1.68006 1.68005 1.67997 1.67977 1.67947 1.67916 1.67907 1.67951 1.68087 1.68343 1.6873 1.69215 1.69737 1.70198 1.70502 1.70549 1.70274 1.69624 1.68573 1.67075 1.65073 1.62436 1.58983 1.54441 1.48535 1.41046 1.31978 1.21626 1.10585 0.995782 0.892705 0.80106 0.722737 0.657558 0.60402 0.560241 0.524249 0.49463 0.47023 0.450588 0.43528 0.424259 0.417112 0.413481 0.412509 0.413423 0.415214 0.417217 0.418835 0.419916 0.4204 0.4205 0.420361 0.42019 0.420044 0.41998 0.419959 0.419974 0.419988 0.420001 0.420002 0.420003 0.420001 0.42 0.42 0.42 0.42 0.42 0.42 0.42 0.42 0.42 0.42 0.42 0.42 0.42 0.42 0.42 0.42 0.42 0.42 0.420003 0.420002 0.420002 0.41999 0.419977 0.41996 0.419973 0.420025 0.420161 0.42033 0.420493 0.420451 0.420063 0.419095 0.417572 0.415584 0.413675 0.412459 0.412929 0.415873 0.422197 0.432309 0.446665 0.465307 0.488611 0.516935 0.551299 0.592977 0.643839 0.705761 0.780401 0.868322 0.968251 1.07648 1.18691 1.2924 1.38653 1.46556 1.52864 1.5775 1.61474 1.64319 1.66485 1.68124 1.69305 1.70081 1.70476 1.70538 1.7032 1.69913 1.69408 1.68907 1.68482 1.68176 1.67994 1.67917 1.67908 1.67932 1.67964 1.67989 1.68002 1.68006 1.68005 1.68003 1.68001 1.68 1.68 1.68 1.68 1.68 1.68 1.68 1.68 1.68 1.68 1.68 1.68 1.68 1.68 1.68 1.68 1.68 1.68 1.68 1.68 1.68 1.68 1.68 1.68 1.68 1.68 1.68 1.68 1.68 1.68 1.68 1.68 1.68 1.68 1.68 1.68 1.68 1.68 1.68 1.68 1.68 1.68 1.68 1.68 1.68 1.68 1.68 1.68 1.68 1.68 1.68 1.68001 1.68003 1.68005 1.68006 1.68002 1.67989 1.67964 1.67932 1.67908 1.67917 1.67994 1.68176 1.68482 1.68907 1.69408 1.69913 1.7032 1.70538 1.70476 1.70081 1.69305 1.68124 1.66485 1.64319 1.61474 1.5775 1.52864 1.46556 1.38653 1.2924 1.18691 1.07648 0.968251 0.868322 0.780401 0.705761 0.643839 0.592977 0.551299 0.516935 0.488611 0.465307 0.446665 0.432309 0.422197 0.415873 0.412929 0.412459 0.413675 0.415584 0.417572 0.419095 0.420063 0.420451 0.420493 0.42033 0.420161 0.420025 0.419973 0.41996 0.419977 0.41999 0.420002 0.420002 0.420003 0.42 0.42 0.42 0.42 0.42 0.42 0.42 0.42 0.42 0.42 0.42 0.42 0.42 0.42 0.42 0.42 0.42 0.42 0.42 0.420003 0.420002 0.420003 0.419993 0.419981 0.419961 0.419968 0.420008 0.42013 0.420295 0.420474 0.420489 0.420198 0.419357 0.417948 0.416012 0.414017 0.412527 0.412502 0.414743 0.42019 0.429321 0.442632 0.460186 0.482318 0.509295 0.542003 0.581571 0.629749 0.688373 0.759215 0.843173 0.939564 1.04542 1.15531 1.26235 1.35978 1.44307 1.51051 1.56322 1.60357 1.63441 1.65796 1.67592 1.68915 1.69828 1.70355 1.70539 1.70422 1.70085 1.69613 1.69108 1.68648 1.68293 1.6806 1.67941 1.67905 1.67918 1.67948 1.67977 1.67996 1.68005 1.68006 1.68005 1.68002 1.68 1.68 1.68 1.68 1.68 1.68 1.68 1.68 1.68 1.68 1.68 1.68 1.68 1.68 1.68 1.68 1.68 1.68 1.68 1.68 1.68 1.68 1.68 1.68 1.68 1.68 1.68 1.68 1.68 1.68 1.68 1.68 1.68 1.68 1.68 1.68 1.68 1.68 1.68 1.68 1.68 1.68 1.68 1.68 1.68 1.68 1.68 1.68 1.68 1.68 1.68 1.68002 1.68005 1.68006 1.68005 1.67996 1.67977 1.67948 1.67918 1.67905 1.67941 1.6806 1.68293 1.68648 1.69108 1.69613 1.70085 1.70422 1.70539 1.70355 1.69828 1.68915 1.67592 1.65796 1.63441 1.60357 1.56322 1.51051 1.44307 1.35978 1.26235 1.15531 1.04542 0.939564 0.843173 0.759215 0.688373 0.629749 0.581571 0.542003 0.509295 0.482318 0.460186 0.442632 0.429321 0.42019 0.414743 0.412502 0.412527 0.414017 0.416012 0.417948 0.419357 0.420198 0.420489 0.420474 0.420295 0.42013 0.420008 0.419968 0.419961 0.419981 0.419993 0.420003 0.420002 0.420003 0.42 0.42 0.42 0.42 0.42 0.42 0.42 0.42 0.42 0.42 0.42 0.42 0.42 0.42 0.42 0.42 0.42 0.42 0.42 0.420002 0.420002 0.420003 0.419995 0.419984 0.419964 0.419964 0.419993 0.420098 0.420255 0.420446 0.420511 0.420314 0.419608 0.418334 0.41648 0.41444 0.412718 0.412224 0.413767 0.418315 0.426415 0.438612 0.455009 0.475904 0.501494 0.532531 0.569993 0.615495 0.670799 0.73775 0.817519 0.909972 1.01288 1.12158 1.2296 1.33002 1.41759 1.4897 1.54671 1.59062 1.62425 1.64996 1.66969 1.68448 1.69508 1.70178 1.70495 1.70495 1.70246 1.69824 1.69329 1.68844 1.68442 1.68153 1.67985 1.67913 1.67907 1.67931 1.67962 1.67987 1.68001 1.68006 1.68006 1.68004 1.68001 1.68 1.68 1.68 1.68 1.68 1.68 1.68 1.68 1.68 1.68 1.68 1.68 1.68 1.68 1.68 1.68 1.68 1.68 1.68 1.68 1.68 1.68 1.68 1.68 1.68 1.68 1.68 1.68 1.68 1.68 1.68 1.68 1.68 1.68 1.68 1.68 1.68 1.68 1.68 1.68 1.68 1.68 1.68 1.68 1.68 1.68 1.68 1.68 1.68 1.68001 1.68004 1.68006 1.68006 1.68001 1.67987 1.67962 1.67931 1.67907 1.67913 1.67985 1.68153 1.68442 1.68844 1.69329 1.69824 1.70246 1.70495 1.70495 1.70178 1.69508 1.68448 1.66969 1.64996 1.62425 1.59062 1.54671 1.4897 1.41759 1.33002 1.2296 1.12158 1.01288 0.909972 0.817519 0.73775 0.670799 0.615495 0.569993 0.532531 0.501494 0.475904 0.455009 0.438612 0.426415 0.418315 0.413767 0.412224 0.412718 0.41444 0.41648 0.418334 0.419608 0.420314 0.420511 0.420446 0.420255 0.420098 0.419993 0.419964 0.419964 0.419984 0.419995 0.420003 0.420002 0.420002 0.42 0.42 0.42 0.42 0.42 0.42 0.42 0.42 0.42 0.42 0.42 0.42 0.42 0.42 0.42 0.42 0.42 0.42 0.42 0.420002 0.420002 0.420004 0.419997 0.419987 0.419967 0.419962 0.41998 0.420068 0.420213 0.420408 0.420517 0.420409 0.41984 0.418715 0.416975 0.414932 0.413026 0.412108 0.41298 0.416629 0.42367 0.434704 0.44988 0.469485 0.493647 0.522996 0.558356 0.601193 0.653168 0.716153 0.791533 0.879664 0.979046 1.08584 1.19414 1.29709 1.38885 1.46587 1.52763 1.57562 1.61248 1.64072 1.66245 1.67897 1.69115 1.69937 1.70399 1.70529 1.70385 1.70033 1.69566 1.6907 1.68626 1.68282 1.68057 1.6794 1.67903 1.67914 1.67944 1.67973 1.67994 1.68004 1.68006 1.68005 1.68003 1.68001 1.68 1.68 1.68 1.68 1.68 1.68 1.68 1.68 1.68 1.68 1.68 1.68 1.68 1.68 1.68 1.68 1.68 1.68 1.68 1.68 1.68 1.68 1.68 1.68 1.68 1.68 1.68 1.68 1.68 1.68 1.68 1.68 1.68 1.68 1.68 1.68 1.68 1.68 1.68 1.68 1.68 1.68 1.68 1.68 1.68 1.68 1.68 1.68001 1.68003 1.68005 1.68006 1.68004 1.67994 1.67973 1.67944 1.67914 1.67903 1.6794 1.68057 1.68282 1.68626 1.6907 1.69566 1.70033 1.70385 1.70529 1.70399 1.69937 1.69115 1.67897 1.66245 1.64072 1.61248 1.57562 1.52763 1.46587 1.38885 1.29709 1.19414 1.08584 0.979046 0.879664 0.791533 0.716153 0.653168 0.601193 0.558356 0.522996 0.493647 0.469485 0.44988 0.434704 0.42367 0.416629 0.41298 0.412108 0.413026 0.414932 0.416975 0.418715 0.41984 0.420409 0.420517 0.420408 0.420213 0.420068 0.41998 0.419962 0.419967 0.419987 0.419997 0.420004 0.420002 0.420002 0.42 0.42 0.42 0.42 0.42 0.42 0.42 0.42 0.42 0.42 0.42 0.42 0.42 0.42 0.42 0.42 0.42 0.42 0.42 0.420001 0.420002 0.420004 0.419999 0.41999 0.419971 0.419962 0.41997 0.420041 0.420171 0.420364 0.420506 0.420479 0.420044 0.41908 0.41748 0.415478 0.413442 0.412156 0.412399 0.415172 0.421144 0.430983 0.444888 0.463152 0.485851 0.513503 0.546779 0.586987 0.635658 0.69465 0.765497 0.848979 0.944278 1.04841 1.15621 1.26107 1.35673 1.43879 1.50571 1.5583 1.59891 1.63007 1.65411 1.67253 1.68641 1.69623 1.7024 1.70513 1.70491 1.70228 1.6981 1.69321 1.68848 1.6845 1.68164 1.67992 1.67916 1.67903 1.67924 1.67955 1.67981 1.67998 1.68005 1.68006 1.68005 1.68002 1.68001 1.68 1.68 1.68 1.68 1.68 1.68 1.68 1.68 1.68 1.68 1.68 1.68 1.68 1.68 1.68 1.68 1.68 1.68 1.68 1.68 1.68 1.68 1.68 1.68 1.68 1.68 1.68 1.68 1.68 1.68 1.68 1.68 1.68 1.