# vtk DataFile Version 3.0
Immiscible displacement
ASCII
DATASET RECTILINEAR_GRID
DIMENSIONS 400 100 1
X_COORDINATES 400 double
1 2 3 4 5 6 7 8 9 10 11 12 13 14 15 16 17 18 19 20 21 22 23 24 25 26 27 28 29 30 31 32 33 34 35 36 37 38 39 40 41 42 43 44 45 46 47 48 49 50 51 52 53 54 55 56 57 58 59 60 61 62 63 64 65 66 67 68 69 70 71 72 73 74 75 76 77 78 79 80 81 82 83 84 85 86 87 88 89 90 91 92 93 94 95 96 97 98 99 100 101 102 103 104 105 106 107 108 109 110 111 112 113 114 115 116 117 118 119 120 121 122 123 124 125 126 127 128 129 130 131 132 133 134 135 136 137 138 139 140 141 142 143 144 145 146 147 148 149 150 151 152 153 154 155 156 157 158 159 160 161 162 163 164 165 166 167 168 169 170 171 172 173 174 175 176 177 178 179 180 181 182 183 184 185 186 187 188 189 190 191 192 193 194 195 196 197 198 199 200 201 202 203 204 205 206 207 208 209 210 211 212 213 214 215 216 217 218 219 220 221 222 223 224 225 226 227 228 229 230 231 232 233 234 235 236 237 238 239 240 241 242 243 244 245 246 247 248 249 250 251 252 253 254 255 256 257 258 259 260 261 262 263 264 265 266 267 268 269 270 271 272 273 274 275 276 277 278 279 280 281 282 283 284 285 286 287 288 289 290 291 292 293 294 295 296 297 298 299 300 301 302 303 304 305 306 307 308 309 310 311 312 313 314 315 316 317 318 319 320 321 322 323 324 325 326 327 328 329 330 331 332 333 334 335 336 337 338 339 340 341 342 343 344 345 346 347 348 349 350 351 352 353 354 355 356 357 358 359 360 361 362 363 364 365 366 367 368 369 370 371 372 373 374 375 376 377 378 379 380 381 382 383 384 385 386 387 388 389 390 391 392 393 394 395 396 397 398 399 400 
Y_COORDINATES 100 double
1 2 3 4 5 6 7 8 9 10 11 12 13 14 15 16 17 18 19 20 21 22 23 24 25 26 27 28 29 30 31 32 33 34 35 36 37 38 39 40 41 42 43 44 45 46 47 48 49 50 51 52 53 54 55 56 57 58 59 60 61 62 63 64 65 66 67 68 69 70 71 72 73 74 75 76 77 78 79 80 81 82 83 84 85 86 87 88 89 90 91 92 93 94 95 96 97 98 99 100 
Z_COORDINATES 1 double
0
POINT_DATA 40000
SCALARS rho double 1
LOOKUP_TABLE default
0.479659 0.479658 0.479655 0.479651 0.479647 0.479642 0.479636 0.479629 0.479621 0.479613 0.479604 0.479593 0.479583 0.479571 0.479558 0.479545 0.479531 0.479516 0.479501 0.479484 0.479467 0.47945 0.479431 0.479412 0.479392 0.479372 0.479351 0.47933 0.479308 0.479286 0.479263 0.479239 0.479216 0.479191 0.479167 0.479142 0.479117 0.479091 0.479066 0.47904 0.479013 0.478987 0.47896 0.478934 0.478907 0.47888 0.478853 0.478826 0.478799 0.478772 0.478745 0.478718 0.478691 0.478665 0.478638 0.478611 0.478585 0.478559 0.478533 0.478507 0.478481 0.478456 0.478431 0.478406 0.478382 0.478358 0.478334 0.47831 0.478287 0.478264 0.478241 0.478219 0.478197 0.478176 0.478155 0.478134 0.478114 0.478094 0.478075 0.478056 0.478037 0.478019 0.478002 0.477984 0.477968 0.477951 0.477935 0.47792 0.477905 0.47789 0.477876 0.477862 0.477849 0.477836 0.477823 0.477811 0.477799 0.477788 0.477777 0.477766 0.477756 0.477746 0.477736 0.477727 0.477718 0.47771 0.477701 0.477693 0.477686 0.477679 0.477671 0.477665 0.477658 0.477653 0.477647 0.477642 0.477637 0.477633 0.477629 0.477627 0.477625 0.477625 0.477626 0.477629 0.477636 0.477646 0.477661 0.477683 0.477713 0.477755 0.477812 0.477889 0.477994 0.478134 0.478323 0.478575 0.478912 0.479362 0.479962 0.480762 0.481829 0.483252 0.485149 0.487678 0.49105 0.495547 0.501543 0.509536 0.520188 0.534371 0.553223 0.578212 0.611181 0.654351 0.710204 0.781148 0.868824 0.97303 1.0905 1.21433 1.33485 1.44243 1.53048 1.59711 1.64436 1.67629 1.69715 1.71051 1.71897 1.7243 1.72766 1.72978 1.73112 1.73198 1.73253 1.73289 1.73312 1.73327 1.73337 1.73344 1.73349 1.73352 1.73354 1.73356 1.73357 1.73358 1.73359 1.73359 1.7336 1.7336 1.7336 1.73361 1.73361 1.73361 1.73361 1.73361 1.73361 1.73362 1.73362 1.73362 1.73362 1.73362 1.73362 1.73362 1.73361 1.73361 1.73361 1.73361 1.73361 1.73361 1.7336 1.7336 1.73359 1.73359 1.73358 1.73357 1.73355 1.73353 1.7335 1.73345 1.73338 1.73328 1.73313 1.7329 1.73254 1.73199 1.73112 1.72977 1.72764 1.72426 1.71889 1.71038 1.69695 1.67596 1.64386 1.59638 1.52947 1.44113 1.33333 1.21269 1.0889 0.971563 0.867568 0.780125 0.709402 0.653741 0.610728 0.577884 0.552993 0.534216 0.520092 0.509484 0.501524 0.495553 0.491076 0.487719 0.485202 0.483314 0.481898 0.480837 0.48004 0.479444 0.478997 0.478662 0.478412 0.478225 0.478086 0.477983 0.477906 0.47785 0.477808 0.477779 0.477758 0.477743 0.477733 0.477727 0.477724 0.477723 0.477723 0.477725 0.477727 0.477731 0.477735 0.477739 0.477744 0.477749 0.477755 0.477761 0.477767 0.477774 0.477781 0.477788 0.477795 0.477803 0.47781 0.477819 0.477827 0.477836 0.477845 0.477854 0.477864 0.477874 0.477885 0.477896 0.477907 0.477918 0.47793 0.477943 0.477955 0.477968 0.477982 0.477996 0.47801 0.478025 0.47804 0.478056 0.478072 0.478088 0.478105 0.478122 0.47814 0.478158 0.478177 0.478196 0.478215 0.478235 0.478255 0.478275 0.478296 0.478317 0.478339 0.478361 0.478383 0.478406 0.478429 0.478452 0.478475 0.478499 0.478523 0.478548 0.478572 0.478597 0.478622 0.478647 0.478672 0.478698 0.478724 0.478749 0.478775 0.478801 0.478827 0.478853 0.478879 0.478905 0.478931 0.478957 0.478983 0.479009 0.479034 0.47906 0.479085 0.47911 0.479135 0.47916 0.479184 0.479208 0.479232 0.479255 0.479278 0.4793 0.479323 0.479344 0.479365 0.479386 0.479406 0.479426 0.479445 0.479463 0.47948 0.479497 0.479514 0.479529 0.479544 0.479558 0.479572 0.479584 0.479596 0.479607 0.479617 0.479627 0.479635 0.479643 0.47965 0.479656 0.479661 0.479665 0.479668 0.479671 0.479673 0.479674 0.469996 0.469994 0.469992 0.469988 0.469984 0.469979 0.469973 0.469966 0.469959 0.46995 0.469941 0.469932 0.469921 0.46991 0.469897 0.469884 0.469871 0.469856 0.469841 0.469825 0.469809 0.469791 0.469773 0.469755 0.469736 0.469716 0.469696 0.469675 0.469654 0.469632 0.46961 0.469587 0.469564 0.46954 0.469516 0.469492 0.469468 0.469443 0.469418 0.469393 0.469367 0.469341 0.469316 0.46929 0.469264 0.469237 0.469211 0.469185 0.469159 0.469132 0.469106 0.46908 0.469054 0.469028 0.469002 0.468976 0.468951 0.468925 0.4689 0.468875 0.46885 0.468825 0.468801 0.468777 0.468753 0.468729 0.468706 0.468683 0.468661 0.468638 0.468616 0.468595 0.468574 0.468553 0.468532 0.468512 0.468493 0.468474 0.468455 0.468436 0.468418 0.468401 0.468383 0.468367 0.46835 0.468334 0.468319 0.468304 0.468289 0.468275 0.468261 0.468247 0.468234 0.468222 0.468209 0.468198 0.468186 0.468175 0.468164 0.468154 0.468144 0.468134 0.468125 0.468116 0.468107 0.468099 0.468091 0.468083 0.468076 0.468069 0.468062 0.468055 0.468049 0.468043 0.468038 0.468033 0.468028 0.468024 0.46802 0.468018 0.468016 0.468016 0.468017 0.46802 0.468026 0.468036 0.46805 0.468071 0.4681 0.46814 0.468195 0.46827 0.46837 0.468506 0.468687 0.468929 0.469253 0.469686 0.470263 0.471033 0.472059 0.473426 0.475249 0.477678 0.480916 0.485232 0.490983 0.498647 0.508852 0.522431 0.540465 0.564352 0.595843 0.637051 0.690351 0.758076 0.841898 0.941837 1.05512 1.17553 1.29408 1.40141 1.4907 1.55941 1.60895 1.64291 1.6654 1.67996 1.68927 1.69518 1.69894 1.70132 1.70284 1.70382 1.70445 1.70486 1.70512 1.7053 1.70542 1.70549 1.70555 1.70559 1.70561 1.70563 1.70565 1.70566 1.70566 1.70567 1.70568 1.70568 1.70568 1.70569 1.70569 1.70569 1.70569 1.70569 1.7057 1.7057 1.7057 1.7057 1.7057 1.7057 1.7057 1.7057 1.7057 1.7057 1.70569 1.70569 1.70569 1.70569 1.70568 1.70568 1.70567 1.70566 1.70565 1.70564 1.70562 1.7056 1.70556 1.7055 1.70543 1.70531 1.70513 1.70486 1.70445 1.70382 1.70284 1.70131 1.69891 1.69514 1.68919 1.67982 1.66518 1.64256 1.60842 1.55865 1.48967 1.40011 1.29258 1.17393 1.05357 0.940431 0.840699 0.757102 0.689588 0.63647 0.595412 0.564041 0.540247 0.522284 0.50876 0.498597 0.490966 0.485239 0.480942 0.477719 0.4753 0.473487 0.472126 0.471105 0.47034 0.469766 0.469336 0.469014 0.468773 0.468594 0.46846 0.46836 0.468287 0.468233 0.468193 0.468164 0.468144 0.46813 0.468121 0.468115 0.468112 0.468111 0.468111 0.468113 0.468116 0.468119 0.468123 0.468127 0.468132 0.468137 0.468143 0.468149 0.468155 0.468161 0.468168 0.468175 0.468182 0.468189 0.468197 0.468205 0.468213 0.468222 0.468231 0.46824 0.468249 0.468259 0.468269 0.46828 0.468291 0.468302 0.468314 0.468326 0.468338 0.468351 0.468364 0.468378 0.468392 0.468406 0.468421 0.468436 0.468452 0.468468 0.468484 0.468501 0.468518 0.468536 0.468554 0.468572 0.468591 0.46861 0.46863 0.468649 0.46867 0.46869 0.468711 0.468733 0.468754 0.468776 0.468799 0.468821 0.468844 0.468867 0.468891 0.468914 0.468938 0.468962 0.468987 0.469011 0.469036 0.46906 0.469085 0.46911 0.469136 0.469161 0.469186 0.469211 0.469237 0.469262 0.469287 0.469312 0.469338 0.469363 0.469388 0.469412 0.469437 0.469461 0.469485 0.469509 0.469533 0.469556 0.469579 0.469602 0.469624 0.469646 0.469668 0.469689 0.46971 0.46973 0.469749 0.469768 0.469787 0.469804 0.469822 0.469838 0.469854 0.469869 0.469884 0.469897 0.469911 0.469923 0.469934 0.469945 0.469955 0.469964 0.469972 0.46998 0.469987 0.469992 0.469997 0.470002 0.470005 0.470008 0.47001 0.470011 0.462681 0.46268 0.462678 0.462674 0.46267 0.462665 0.462659 0.462653 0.462645 0.462637 0.462628 0.462619 0.462608 0.462597 0.462585 0.462573 0.462559 0.462545 0.46253 0.462515 0.462499 0.462482 0.462464 0.462446 0.462428 0.462409 0.462389 0.462369 0.462348 0.462327 0.462305 0.462283 0.46226 0.462237 0.462214 0.462191 0.462167 0.462143 0.462118 0.462094 0.462069 0.462044 0.462019 0.461994 0.461968 0.461943 0.461917 0.461892 0.461866 0.461841 0.461815 0.46179 0.461765 0.461739 0.461714 0.461689 0.461664 0.461639 0.461615 0.46159 0.461566 0.461542 0.461519 0.461495 0.461472 0.461449 0.461427 0.461404 0.461382 0.461361 0.461339 0.461318 0.461298 0.461277 0.461258 0.461238 0.461219 0.4612 0.461182 0.461164 0.461146 0.461129 0.461112 0.461096 0.46108 0.461065 0.46105 0.461035 0.461021 0.461007 0.460993 0.46098 0.460967 0.460955 0.460943 0.460932 0.46092 0.46091 0.460899 0.460889 0.460879 0.46087 0.460861 0.460852 0.460843 0.460835 0.460827 0.46082 0.460812 0.460806 0.460799 0.460793 0.460786 0.460781 0.460775 0.46077 0.460766 0.460762 0.460758 0.460755 0.460754 0.460753 0.460754 0.460757 0.460763 0.460772 0.460785 0.460805 0.460833 0.460871 0.460923 0.460994 0.46109 0.461219 0.461391 0.461622 0.46193 0.462342 0.462891 0.463623 0.464598 0.465898 0.467629 0.469934 0.473004 0.477093 0.482536 0.489782 0.499419 0.512224 0.529209 0.551671 0.581245 0.619905 0.669888 0.733451 0.812336 0.906921 1.01516 1.13186 1.24898 1.35755 1.4503 1.52367 1.57798 1.61613 1.64192 1.65893 1.66996 1.67707 1.68163 1.68456 1.68644 1.68766 1.68845 1.68896 1.6893 1.68953 1.68968 1.68978 1.68985 1.6899 1.68993 1.68996 1.68998 1.68999 1.69 1.69001 1.69001 1.69002 1.69002 1.69003 1.69003 1.69003 1.69003 1.69004 1.69004 1.69004 1.69004 1.69004 1.69004 1.69004 1.69004 1.69004 1.69004 1.69004 1.69003 1.69003 1.69003 1.69003 1.69002 1.69002 1.69001 1.69 1.68998 1.68997 1.68994 1.68991 1.68986 1.68979 1.68969 1.68954 1.68931 1.68897 1.68845 1.68766 1.68643 1.68454 1.6816 1.67701 1.66987 1.65877 1.64167 1.61573 1.5774 1.52285 1.44922 1.35623 1.24749 1.13031 1.01368 0.905591 0.811211 0.73254 0.669176 0.619363 0.580843 0.551381 0.529005 0.512088 0.499334 0.489737 0.482521 0.477101 0.47303 0.469974 0.467679 0.465957 0.464664 0.463694 0.462966 0.46242 0.462011 0.461705 0.461475 0.461304 0.461177 0.461082 0.461012 0.460961 0.460923 0.460896 0.460877 0.460864 0.460855 0.460849 0.460846 0.460846 0.460846 0.460848 0.460851 0.460854 0.460858 0.460862 0.460867 0.460872 0.460878 0.460883 0.460889 0.460896 0.460902 0.460909 0.460916 0.460923 0.460931 0.460939 0.460947 0.460955 0.460964 0.460973 0.460982 0.460992 0.461001 0.461012 0.461022 0.461033 0.461045 0.461056 0.461069 0.461081 0.461094 0.461107 0.461121 0.461135 0.461149 0.461164 0.461179 0.461195 0.46121 0.461227 0.461244 0.461261 0.461278 0.461296 0.461314 0.461333 0.461352 0.461371 0.461391 0.461411 0.461432 0.461452 0.461474 0.461495 0.461517 0.461539 0.461561 0.461583 0.461606 0.461629 0.461652 0.461676 0.461699 0.461723 0.461747 0.461771 0.461795 0.46182 0.461844 0.461869 0.461893 0.461918 0.461942 0.461967 0.461992 0.462016 0.462041 0.462065 0.462089 0.462113 0.462137 0.462161 0.462184 0.462208 0.462231 0.462253 0.462276 0.462298 0.46232 0.462341 0.462362 0.462382 0.462402 0.462422 0.462441 0.462459 0.462477 0.462495 0.462511 0.462528 0.462543 0.462558 0.462572 0.462585 0.462598 0.46261 0.462621 0.462632 0.462642 0.462651 0.462659 0.462666 0.462673 0.462679 0.462684 0.462688 0.462691 0.462694 0.462696 0.462697 0.457151 0.45715 0.457147 0.457144 0.45714 0.457135 0.457129 0.457123 0.457115 0.457107 0.457099 0.457089 0.457079 0.457068 0.457056 0.457044 0.457031 0.457017 0.457002 0.456987 0.456971 0.456955 0.456938 0.45692 0.456902 0.456884 0.456864 0.456845 0.456824 0.456804 0.456783 0.456761 0.456739 0.456717 0.456694 0.456671 0.456648 0.456625 0.456601 0.456577 0.456553 0.456529 0.456504 0.45648 0.456455 0.45643 0.456405 0.45638 0.456356 0.456331 0.456306 0.456281 0.456256 0.456232 0.456207 0.456183 0.456159 0.456135 0.456111 0.456087 0.456063 0.45604 0.456017 0.455994 0.455972 0.455949 0.455927 0.455906 0.455884 0.455863 0.455842 0.455822 0.455802 0.455782 0.455763 0.455744 0.455725 0.455707 0.455689 0.455672 0.455654 0.455638 0.455621 0.455606 0.45559 0.455575 0.45556 0.455546 0.455532 0.455518 0.455505 0.455492 0.45548 0.455468 0.455456 0.455445 0.455434 0.455423 0.455413 0.455403 0.455394 0.455385 0.455376 0.455367 0.455359 0.455351 0.455343 0.455336 0.455328 0.455322 0.455315 0.455309 0.455303 0.455297 0.455292 0.455287 0.455282 0.455278 0.455275 0.455272 0.45527 0.455269 0.45527 0.455273 0.455278 0.455286 0.455299 0.455317 0.455343 0.455379 0.455429 0.455496 0.455586 0.455707 0.45587 0.456088 0.456379 0.456767 0.457285 0.457975 0.458893 0.460115 0.461742 0.463907 0.466787 0.470618 0.475711 0.48248 0.491468 0.503389 0.519171 0.540004 0.567383 0.603128 0.649321 0.708127 0.781363 0.869794 0.972187 1.08451 1.1999 1.30996 1.40705 1.48644 1.54713 1.59102 1.62146 1.64197 1.65552 1.66437 1.67013 1.67387 1.67629 1.67788 1.67892 1.6796 1.68005 1.68035 1.68056 1.6807 1.68079 1.68086 1.6809 1.68094 1.68096 1.68098 1.68099 1.681 1.68101 1.68102 1.68102 1.68103 1.68103 1.68103 1.68103 1.68104 1.68104 1.68104 1.68104 1.68104 1.68104 1.68104 1.68104 1.68104 1.68104 1.68104 1.68103 1.68103 1.68103 1.68102 1.68102 1.68101 1.681 1.68099 1.68097 1.68095 1.68091 1.68087 1.6808 1.68071 1.68057 1.68036 1.68006 1.67961 1.67892 1.67788 1.67629 1.67384 1.67009 1.6643 1.65539 1.64177 1.62116 1.59057 1.54648 1.48555 1.40591 1.30861 1.19843 1.08301 0.970782 0.868555 0.780324 0.707289 0.648668 0.602631 0.567015 0.539737 0.518985 0.503265 0.491392 0.48244 0.4757 0.470628 0.466814 0.463947 0.461792 0.460173 0.458956 0.458043 0.457357 0.456843 0.456457 0.456168 0.455952 0.455791 0.45567 0.455581 0.455515 0.455467 0.455431 0.455406 0.455388 0.455376 0.455367 0.455363 0.45536 0.45536 0.45536 0.455362 0.455365 0.455368 0.455372 0.455377 0.455381 0.455386 0.455392 0.455397 0.455403 0.455409 0.455416 0.455422 0.455429 0.455436 0.455444 0.455452 0.455459 0.455468 0.455476 0.455485 0.455494 0.455503 0.455513 0.455523 0.455534 0.455544 0.455555 0.455567 0.455579 0.455591 0.455603 0.455616 0.45563 0.455643 0.455657 0.455672 0.455686 0.455702 0.455717 0.455733 0.455749 0.455766 0.455783 0.455801 0.455818 0.455837 0.455855 0.455874 0.455893 0.455913 0.455933 0.455953 0.455973 0.455994 0.456015 0.456037 0.456058 0.45608 0.456102 0.456125 0.456147 0.45617 0.456193 0.456216 0.45624 0.456263 0.456287 0.45631 0.456334 0.456358 0.456382 0.456406 0.45643 0.456454 0.456478 0.456502 0.456525 0.456549 0.456573 0.456596 0.456619 0.456643 0.456665 0.456688 0.45671 0.456733 0.456754 0.456776 0.456797 0.456818 0.456838 0.456858 0.456878 0.456897 0.456915 0.456933 0.456951 0.456968 0.456984 0.457 0.457015 0.45703 0.457043 0.457057 0.457069 0.457081 0.457092 0.457102 0.457112 0.457121 0.457129 0.457136 0.457143 0.457148 0.457153 0.457158 0.457161 0.457164 0.457166 0.457167 0.452971 0.45297 0.452968 0.452965 0.452961 0.452956 0.45295 0.452944 0.452936 0.452928 0.45292 0.45291 0.4529 0.452889 0.452878 0.452866 0.452853 0.452839 0.452825 0.45281 0.452795 0.452779 0.452762 0.452745 0.452727 0.452709 0.45269 0.452671 0.452651 0.452631 0.45261 0.452589 0.452568 0.452546 0.452524 0.452502 0.452479 0.452456 0.452433 0.452409 0.452386 0.452362 0.452338 0.452314 0.45229 0.452266 0.452242 0.452218 0.452194 0.452169 0.452145 0.452121 0.452097 0.452073 0.452049 0.452025 0.452002 0.451978 0.451955 0.451932 0.451909 0.451886 0.451863 0.451841 0.451819 0.451797 0.451776 0.451755 0.451734 0.451713 0.451693 0.451673 0.451654 0.451634 0.451615 0.451597 0.451579 0.451561 0.451543 0.451526 0.45151 0.451493 0.451477 0.451462 0.451447 0.451432 0.451417 0.451403 0.45139 0.451377 0.451364 0.451351 0.451339 0.451327 0.451316 0.451305 0.451294 0.451284 0.451274 0.451264 0.451255 0.451246 0.451237 0.451228 0.45122 0.451212 0.451205 0.451198 0.45119 0.451184 0.451177 0.451171 0.451165 0.45116 0.451154 0.451149 0.451145 0.451141 0.451137 0.451134 0.451132 0.451132 0.451132 0.451134 0.451139 0.451146 0.451158 0.451175 0.451199 0.451233 0.451279 0.451342 0.451426 0.45154 0.451692 0.451896 0.452169 0.452532 0.453016 0.453661 0.454518 0.455658 0.457174 0.459188 0.461864 0.465418 0.470135 0.476393 0.484684 0.495658 0.510153 0.529245 0.554285 0.586927 0.629088 0.68282 0.749989 0.831706 0.927516 1.03458 1.14736 1.25828 1.3596 1.44555 1.51365 1.56453 1.60083 1.62587 1.64276 1.65398 1.66137 1.66623 1.66942 1.67152 1.67291 1.67383 1.67444 1.67485 1.67513 1.67532 1.67545 1.67555 1.67561 1.67566 1.67569 1.67572 1.67573 1.67575 1.67576 1.67577 1.67577 1.67578 1.67578 1.67579 1.67579 1.67579 1.67579 1.6758 1.6758 1.6758 1.6758 1.6758 1.6758 1.67579 1.67579 1.67579 1.67579 1.67578 1.67578 1.67577 1.67577 1.67576 1.67574 1.67572 1.6757 1.67567 1.67562 1.67556 1.67546 1.67533 1.67514 1.67486 1.67445 1.67383 1.67291 1.67151 1.6694 1.6662 1.66131 1.65388 1.6426 1.62564 1.60047 1.564 1.51291 1.44458 1.3584 1.25691 1.14591 1.03316 0.926202 0.830565 0.749042 0.682061 0.628497 0.586479 0.553954 0.529005 0.509986 0.495548 0.484618 0.476359 0.470128 0.465431 0.461892 0.459228 0.457223 0.455715 0.45458 0.453728 0.453087 0.452606 0.452245 0.451975 0.451772 0.451621 0.451509 0.451425 0.451363 0.451318 0.451285 0.451261 0.451245 0.451233 0.451226 0.451222 0.45122 0.451219 0.45122 0.451222 0.451225 0.451229 0.451232 0.451237 0.451242 0.451247 0.451252 0.451258 0.451263 0.451269 0.451276 0.451282 0.451289 0.451296 0.451303 0.451311 0.451319 0.451327 0.451335 0.451344 0.451353 0.451362 0.451371 0.451381 0.451391 0.451402 0.451413 0.451424 0.451436 0.451448 0.45146 0.451472 0.451485 0.451499 0.451512 0.451527 0.451541 0.451556 0.451571 0.451587 0.451602 0.451619 0.451635 0.451653 0.45167 0.451688 0.451706 0.451724 0.451743 0.451762 0.451781 0.451801 0.451821 0.451841 0.451862 0.451883 0.451904 0.451925 0.451947 0.451969 0.451991 0.452013 0.452035 0.452058 0.452081 0.452104 0.452127 0.45215 0.452173 0.452196 0.45222 0.452243 0.452266 0.45229 0.452313 0.452336 0.45236 0.452383 0.452406 0.452429 0.452451 0.452474 0.452496 0.452518 0.45254 0.452562 0.452583 0.452604 0.452625 0.452645 0.452665 0.452684 0.452703 0.452722 0.45274 0.452758 0.452775 0.452791 0.452807 0.452823 0.452838 0.452852 0.452866 0.452879 0.452891 0.452902 0.452913 0.452924 0.452933 0.452942 0.45295 0.452957 0.452964 0.452969 0.452975 0.452979 0.452982 0.452985 0.452987 0.452988 0.449815 0.449813 0.449811 0.449808 0.449804 0.449799 0.449793 0.449787 0.44978 0.449772 0.449763 0.449754 0.449744 0.449733 0.449722 0.44971 0.449697 0.449684 0.44967 0.449655 0.44964 0.449624 0.449608 0.449591 0.449573 0.449555 0.449537 0.449518 0.449499 0.449479 0.449459 0.449438 0.449417 0.449396 0.449374 0.449353 0.44933 0.449308 0.449285 0.449262 0.449239 0.449216 0.449193 0.44917 0.449146 0.449122 0.449099 0.449075 0.449051 0.449028 0.449004 0.44898 0.448957 0.448933 0.44891 0.448887 0.448864 0.448841 0.448818 0.448795 0.448773 0.448751 0.448729 0.448707 0.448685 0.448664 0.448643 0.448622 0.448602 0.448582 0.448562 0.448543 0.448523 0.448505 0.448486 0.448468 0.44845 0.448433 0.448416 0.448399 0.448383 0.448367 0.448351 0.448336 0.448321 0.448307 0.448292 0.448279 0.448265 0.448252 0.44824 0.448227 0.448215 0.448204 0.448193 0.448182 0.448171 0.448161 0.448151 0.448142 0.448133 0.448124 0.448115 0.448107 0.448099 0.448091 0.448084 0.448076 0.448069 0.448063 0.448056 0.44805 0.448044 0.448039 0.448034 0.448029 0.448024 0.44802 0.448016 0.448014 0.448011 0.44801 0.44801 0.448012 0.448016 0.448023 0.448034 0.44805 0.448072 0.448103 0.448146 0.448204 0.448282 0.448388 0.44853 0.44872 0.448973 0.449311 0.44976 0.450358 0.451152 0.452207 0.453608 0.455467 0.457932 0.4612 0.46553 0.47126 0.478835 0.488837 0.502015 0.51933 0.54199 0.571479 0.609542 0.658102 0.719023 0.793682 0.882301 0.983167 1.0921 1.20264 1.30732 1.39962 1.4756 1.53444 1.57776 1.60844 1.62959 1.64389 1.65347 1.65983 1.66406 1.66687 1.66874 1.66999 1.67083 1.6714 1.67179 1.67206 1.67224 1.67237 1.67246 1.67253 1.67257 1.67261 1.67263 1.67265 1.67267 1.67268 1.67269 1.67269 1.6727 1.6727 1.67271 1.67271 1.67271 1.67271 1.67272 1.67272 1.67272 1.67272 1.67271 1.67271 1.67271 1.67271 1.6727 1.6727 1.67269 1.67268 1.67267 1.67266 1.67264 1.67262 1.67258 1.67253 1.67247 1.67238 1.67225 1.67207 1.6718 1.67141 1.67084 1.67 1.66874 1.66686 1.66404 1.65979 1.65339 1.64377 1.62939 1.60815 1.57732 1.53382 1.47477 1.39857 1.30608 1.20126 1.09069 0.981822 0.88109 0.792646 0.71817 0.657423 0.609016 0.571081 0.541696 0.519118 0.501868 0.488741 0.478779 0.471233 0.465527 0.461216 0.457962 0.455508 0.453657 0.452263 0.451213 0.450424 0.449829 0.449383 0.449048 0.448796 0.448608 0.448468 0.448363 0.448285 0.448228 0.448186 0.448156 0.448134 0.448118 0.448108 0.448102 0.448098 0.448096 0.448096 0.448097 0.4481 0.448102 0.448106 0.44811 0.448114 0.448119 0.448124 0.448129 0.448135 0.448141 0.448147 0.448153 0.448159 0.448166 0.448173 0.44818 0.448188 0.448195 0.448203 0.448211 0.44822 0.448229 0.448238 0.448247 0.448257 0.448267 0.448277 0.448288 0.448299 0.44831 0.448322 0.448334 0.448346 0.448359 0.448372 0.448386 0.448399 0.448414 0.448428 0.448443 0.448458 0.448474 0.44849 0.448506 0.448523 0.44854 0.448557 0.448575 0.448593 0.448611 0.44863 0.448649 0.448668 0.448688 0.448707 0.448728 0.448748 0.448769 0.44879 0.448811 0.448832 0.448854 0.448875 0.448897 0.448919 0.448942 0.448964 0.448986 0.449009 0.449032 0.449054 0.449077 0.4491 0.449123 0.449146 0.449169 0.449191 0.449214 0.449237 0.449259 0.449281 0.449304 0.449326 0.449348 0.449369 0.449391 0.449412 0.449433 0.449453 0.449473 0.449493 0.449513 0.449532 0.44955 0.449569 0.449586 0.449604 0.449621 0.449637 0.449653 0.449668 0.449682 0.449696 0.44971 0.449722 0.449735 0.449746 0.449757 0.449767 0.449776 0.449785 0.449793 0.4498 0.449807 0.449813 0.449818 0.449822 0.449826 0.449829 0.449831 0.449832 0.44743 0.447429 0.447427 0.447424 0.447419 0.447415 0.447409 0.447402 0.447395 0.447387 0.447379 0.447369 0.447359 0.447349 0.447338 0.447326 0.447313 0.4473 0.447286 0.447272 0.447257 0.447241 0.447225 0.447209 0.447191 0.447174 0.447156 0.447137 0.447118 0.447099 0.447079 0.447059 0.447038 0.447017 0.446996 0.446975 0.446953 0.446931 0.446909 0.446886 0.446864 0.446841 0.446818 0.446795 0.446772 0.446749 0.446726 0.446703 0.44668 0.446656 0.446633 0.44661 0.446587 0.446564 0.446541 0.446518 0.446496 0.446473 0.446451 0.446429 0.446407 0.446385 0.446363 0.446342 0.446321 0.4463 0.446279 0.446259 0.446239 0.446219 0.4462 0.446181 0.446162 0.446144 0.446126 0.446108 0.44609 0.446073 0.446057 0.44604 0.446024 0.446009 0.445993 0.445978 0.445964 0.445949 0.445936 0.445922 0.445909 0.445896 0.445884 0.445872 0.44586 0.445849 0.445838 0.445827 0.445817 0.445807 0.445797 0.445788 0.445778 0.44577 0.445761 0.445753 0.445745 0.445738 0.44573 0.445723 0.445716 0.44571 0.445703 0.445697 0.445691 0.445686 0.445681 0.445676 0.445671 0.445667 0.445663 0.44566 0.445658 0.445657 0.445656 0.445658 0.445661 0.445668 0.445677 0.445692 0.445712 0.445741 0.44578 0.445834 0.445906 0.446004 0.446135 0.446311 0.446544 0.446856 0.44727 0.447821 0.448551 0.449521 0.450806 0.452508 0.454762 0.457743 0.461683 0.466886 0.473748 0.482783 0.494656 0.510216 0.530531 0.556921 0.590956 0.634408 0.689093 0.75656 0.837558 0.931354 1.03509 1.14362 1.25017 1.34791 1.43166 1.49906 1.55043 1.5879 1.61437 1.63264 1.64507 1.65345 1.65908 1.66285 1.66539 1.6671 1.66826 1.66905 1.66959 1.66997 1.67023 1.67041 1.67054 1.67063 1.6707 1.67075 1.67078 1.67081 1.67083 1.67085 1.67086 1.67087 1.67087 1.67088 1.67089 1.67089 1.67089 1.67089 1.6709 1.6709 1.6709 1.6709 1.67089 1.67089 1.67089 1.67088 1.67088 1.67087 1.67086 1.67085 1.67084 1.67082 1.67079 1.67075 1.6707 1.67064 1.67055 1.67042 1.67023 1.66997 1.6696 1.66906 1.66827 1.6671 1.66538 1.66283 1.65904 1.65339 1.64497 1.63248 1.61413 1.58754 1.54991 1.49835 1.43074 1.34678 1.2489 1.14227 1.03375 0.930106 0.836457 0.755631 0.688337 0.633809 0.590493 0.556572 0.530274 0.510032 0.494529 0.482702 0.473701 0.466867 0.461685 0.457762 0.454793 0.45255 0.450855 0.449577 0.448612 0.447886 0.447338 0.446927 0.446617 0.446386 0.446212 0.446082 0.445985 0.445913 0.44586 0.445822 0.445794 0.445774 0.44576 0.445751 0.445745 0.445742 0.44574 0.445741 0.445742 0.445745 0.445748 0.445751 0.445755 0.44576 0.445764 0.445769 0.445775 0.44578 0.445786 0.445792 0.445798 0.445804 0.445811 0.445818 0.445825 0.445832 0.44584 0.445848 0.445856 0.445864 0.445873 0.445882 0.445891 0.445901 0.445911 0.445921 0.445931 0.445942 0.445953 0.445965 0.445977 0.445989 0.446001 0.446014 0.446027 0.446041 0.446055 0.446069 0.446084 0.446099 0.446114 0.44613 0.446145 0.446162 0.446178 0.446196 0.446213 0.446231 0.446248 0.446267 0.446285 0.446304 0.446323 0.446343 0.446363 0.446383 0.446403 0.446423 0.446444 0.446465 0.446486 0.446507 0.446529 0.446551 0.446572 0.446594 0.446616 0.446638 0.446661 0.446683 0.446705 0.446728 0.44675 0.446772 0.446795 0.446817 0.446839 0.446861 0.446884 0.446905 0.446927 0.446949 0.44697 0.446991 0.447012 0.447033 0.447054 0.447074 0.447094 0.447113 0.447132 0.447151 0.447169 0.447187 0.447205 0.447222 0.447238 0.447254 0.44727 0.447285 0.447299 0.447313 0.447326 0.447339 0.447351 0.447362 0.447373 0.447383 0.447392 0.447401 0.447409 0.447416 0.447423 0.447429 0.447434 0.447439 0.447442 0.447445 0.447447 0.447448 0.44563 0.445628 0.445626 0.445623 0.445619 0.445614 0.445608 0.445601 0.445594 0.445586 0.445578 0.445569 0.445559 0.445548 0.445537 0.445525 0.445513 0.4455 0.445486 0.445472 0.445457 0.445442 0.445426 0.445409 0.445392 0.445375 0.445357 0.445339 0.44532 0.445301 0.445282 0.445262 0.445242 0.445221 0.4452 0.445179 0.445158 0.445136 0.445114 0.445092 0.44507 0.445048 0.445025 0.445003 0.44498 0.444958 0.444935 0.444912 0.444889 0.444866 0.444844 0.444821 0.444798 0.444776 0.444753 0.444731 0.444709 0.444686 0.444665 0.444643 0.444621 0.4446 0.444579 0.444558 0.444537 0.444517 0.444496 0.444476 0.444457 0.444437 0.444418 0.4444 0.444381 0.444363 0.444345 0.444328 0.444311 0.444294 0.444277 0.444261 0.444246 0.44423 0.444215 0.4442 0.444186 0.444172 0.444158 0.444145 0.444132 0.44412 0.444107 0.444096 0.444084 0.444073 0.444062 0.444052 0.444041 0.444031 0.444022 0.444013 0.444004 0.443995 0.443987 0.443979 0.443971 0.443963 0.443956 0.443949 0.443942 0.443936 0.443929 0.443923 0.443917 0.443912 0.443907 0.443902 0.443897 0.443893 0.443889 0.443886 0.443884 0.443882 0.443882 0.443883 0.443885 0.443891 0.443899 0.443912 0.443931 0.443957 0.443993 0.444043 0.444109 0.444199 0.44432 0.444481 0.444695 0.444981 0.445361 0.445865 0.446532 0.447417 0.448588 0.450136 0.45218 0.45488 0.458439 0.463127 0.469293 0.47739 0.488001 0.501869 0.519932 0.543351 0.573521 0.612054 0.660674 0.721002 0.79416 0.880205 0.977482 1.08221 1.18869 1.29027 1.38101 1.45707 1.51726 1.56265 1.59562 1.6189 1.63503 1.64607 1.65359 1.65868 1.66214 1.66449 1.6661 1.6672 1.66796 1.66849 1.66885 1.66911 1.6693 1.66943 1.66953 1.6696 1.66965 1.66969 1.66972 1.66974 1.66976 1.66977 1.66978 1.66979 1.6698 1.6698 1.66981 1.66981 1.66981 1.66981 1.66981 1.66981 1.66981 1.66981 1.6698 1.6698 1.66979 1.66978 1.66977 1.66975 1.66973 1.6697 1.66966 1.66961 1.66954 1.66944 1.66931 1.66912 1.66886 1.66849 1.66796 1.6672 1.6661 1.66449 1.66213 1.65865 1.65354 1.64599 1.63489 1.61869 1.59531 1.56222 1.51665 1.45627 1.38001 1.2891 1.1874 1.0809 0.976225 0.879065 0.793174 0.72018 0.66001 0.611532 0.57312 0.543049 0.519711 0.501712 0.487894 0.477323 0.469257 0.463115 0.458446 0.454902 0.452214 0.450178 0.448638 0.447473 0.446593 0.445929 0.445428 0.445051 0.444767 0.444554 0.444395 0.444276 0.444187 0.444121 0.444072 0.444037 0.444011 0.443993 0.443981 0.443973 0.443967 0.443965 0.443964 0.443965 0.443966 0.443969 0.443972 0.443976 0.44398 0.443984 0.443989 0.443994 0.443999 0.444005 0.44401 0.444016 0.444023 0.444029 0.444035 0.444042 0.444049 0.444057 0.444064 0.444072 0.44408 0.444088 0.444097 0.444106 0.444115 0.444124 0.444134 0.444144 0.444154 0.444165 0.444176 0.444187 0.444199 0.444211 0.444223 0.444236 0.444249 0.444262 0.444276 0.44429 0.444304 0.444319 0.444334 0.444349 0.444365 0.444381 0.444398 0.444414 0.444431 0.444449 0.444466 0.444484 0.444503 0.444521 0.44454 0.444559 0.444578 0.444598 0.444618 0.444638 0.444658 0.444679 0.4447 0.444721 0.444742 0.444763 0.444784 0.444806 0.444827 0.444849 0.444871 0.444893 0.444915 0.444937 0.444959 0.444981 0.445003 0.445025 0.445047 0.445068 0.44509 0.445111 0.445133 0.445154 0.445175 0.445196 0.445217 0.445237 0.445257 0.445277 0.445296 0.445316 0.445334 0.445353 0.445371 0.445389 0.445406 0.445423 0.445439 0.445455 0.44547 0.445485 0.445499 0.445513 0.445526 0.445538 0.44555 0.445561 0.445572 0.445582 0.445591 0.4456 0.445608 0.445616 0.445622 0.445628 0.445634 0.445638 0.445642 0.445645 0.445647 0.445649 0.44427 0.444268 0.444266 0.444263 0.444258 0.444253 0.444247 0.444241 0.444234 0.444226 0.444217 0.444208 0.444198 0.444188 0.444176 0.444165 0.444152 0.444139 0.444126 0.44411