# vtk DataFile Version 3.0
Immiscible displacement
ASCII
DATASET RECTILINEAR_GRID
DIMENSIONS 400 100 1
X_COORDINATES 400 double
1 2 3 4 5 6 7 8 9 10 11 12 13 14 15 16 17 18 19 20 21 22 23 24 25 26 27 28 29 30 31 32 33 34 35 36 37 38 39 40 41 42 43 44 45 46 47 48 49 50 51 52 53 54 55 56 57 58 59 60 61 62 63 64 65 66 67 68 69 70 71 72 73 74 75 76 77 78 79 80 81 82 83 84 85 86 87 88 89 90 91 92 93 94 95 96 97 98 99 100 101 102 103 104 105 106 107 108 109 110 111 112 113 114 115 116 117 118 119 120 121 122 123 124 125 126 127 128 129 130 131 132 133 134 135 136 137 138 139 140 141 142 143 144 145 146 147 148 149 150 151 152 153 154 155 156 157 158 159 160 161 162 163 164 165 166 167 168 169 170 171 172 173 174 175 176 177 178 179 180 181 182 183 184 185 186 187 188 189 190 191 192 193 194 195 196 197 198 199 200 201 202 203 204 205 206 207 208 209 210 211 212 213 214 215 216 217 218 219 220 221 222 223 224 225 226 227 228 229 230 231 232 233 234 235 236 237 238 239 240 241 242 243 244 245 246 247 248 249 250 251 252 253 254 255 256 257 258 259 260 261 262 263 264 265 266 267 268 269 270 271 272 273 274 275 276 277 278 279 280 281 282 283 284 285 286 287 288 289 290 291 292 293 294 295 296 297 298 299 300 301 302 303 304 305 306 307 308 309 310 311 312 313 314 315 316 317 318 319 320 321 322 323 324 325 326 327 328 329 330 331 332 333 334 335 336 337 338 339 340 341 342 343 344 345 346 347 348 349 350 351 352 353 354 355 356 357 358 359 360 361 362 363 364 365 366 367 368 369 370 371 372 373 374 375 376 377 378 379 380 381 382 383 384 385 386 387 388 389 390 391 392 393 394 395 396 397 398 399 400 
Y_COORDINATES 100 double
1 2 3 4 5 6 7 8 9 10 11 12 13 14 15 16 17 18 19 20 21 22 23 24 25 26 27 28 29 30 31 32 33 34 35 36 37 38 39 40 41 42 43 44 45 46 47 48 49 50 51 52 53 54 55 56 57 58 59 60 61 62 63 64 65 66 67 68 69 70 71 72 73 74 75 76 77 78 79 80 81 82 83 84 85 86 87 88 89 90 91 92 93 94 95 96 97 98 99 100 
Z_COORDINATES 1 double
0
POINT_DATA 40000
SCALARS rho double 1
LOOKUP_TABLE default
0.475715 0.475713 0.475709 0.475706 0.475702 0.475698 0.475695 0.475692 0.475689 0.475687 0.475685 0.475684 0.475683 0.475682 0.475682 0.475682 0.475683 0.475684 0.475685 0.475687 0.475688 0.475691 0.475693 0.475696 0.475699 0.475702 0.475706 0.475709 0.475713 0.475718 0.475722 0.475727 0.475732 0.475737 0.475742 0.475747 0.475753 0.475759 0.475765 0.475771 0.475778 0.475784 0.475791 0.475798 0.475805 0.475812 0.475819 0.475826 0.475834 0.475842 0.475849 0.475857 0.475865 0.475873 0.475882 0.47589 0.475899 0.475907 0.475916 0.475925 0.475933 0.475942 0.475951 0.475961 0.47597 0.475979 0.475988 0.475998 0.476007 0.476017 0.476027 0.476036 0.476046 0.476056 0.476066 0.476076 0.476085 0.476095 0.476105 0.476116 0.476126 0.476136 0.476146 0.476156 0.476166 0.476176 0.476186 0.476197 0.476207 0.476217 0.476227 0.476237 0.476248 0.476258 0.476268 0.476278 0.476288 0.476298 0.476308 0.476319 0.476329 0.476339 0.476349 0.476359 0.476369 0.476379 0.476388 0.476398 0.476408 0.476418 0.476428 0.476438 0.476448 0.476458 0.476468 0.476479 0.476489 0.4765 0.476512 0.476524 0.476537 0.476552 0.476568 0.476587 0.476608 0.476634 0.476665 0.476704 0.476753 0.476814 0.476893 0.476995 0.477127 0.477301 0.477528 0.477828 0.478225 0.478749 0.479444 0.480366 0.481592 0.483221 0.485389 0.488275 0.492119 0.497241 0.504065 0.513159 0.52527 0.541383 0.562776 0.591083 0.628321 0.676857 0.739205 0.817548 0.912863 1.02372 1.14522 1.26897 1.38491 1.48439 1.56288 1.62044 1.66028 1.68674 1.70384 1.71472 1.72158 1.7259 1.72862 1.73034 1.73143 1.73212 1.73257 1.73286 1.73304 1.73317 1.73325 1.73331 1.73334 1.73337 1.73339 1.7334 1.73341 1.73342 1.73342 1.73343 1.73343 1.73344 1.73344 1.73344 1.73344 1.73345 1.73345 1.73345 1.73345 1.73345 1.73345 1.73345 1.73345 1.73345 1.73345 1.73345 1.73345 1.73345 1.73345 1.73345 1.73344 1.73344 1.73344 1.73343 1.73343 1.73342 1.73342 1.73341 1.73339 1.73338 1.73335 1.73331 1.73326 1.73318 1.73305 1.73287 1.73258 1.73214 1.73144 1.73036 1.72865 1.72595 1.72165 1.71482 1.704 1.68699 1.66066 1.62099 1.56365 1.48541 1.38615 1.27037 1.14665 1.02508 0.91407 0.81857 0.740041 0.677527 0.628852 0.591503 0.56311 0.541651 0.525489 0.51334 0.504219 0.497373 0.492237 0.488382 0.485488 0.483314 0.481681 0.480453 0.479528 0.478832 0.478307 0.47791 0.47761 0.477383 0.477209 0.477077 0.476976 0.476897 0.476836 0.476788 0.47675 0.476719 0.476694 0.476673 0.476654 0.476639 0.476624 0.476612 0.4766 0.476589 0.476578 0.476567 0.476557 0.476547 0.476538 0.476528 0.476518 0.476508 0.476499 0.476489 0.476479 0.476469 0.476459 0.47645 0.47644 0.47643 0.47642 0.476409 0.476399 0.476389 0.476379 0.476369 0.476358 0.476348 0.476338 0.476327 0.476317 0.476307 0.476296 0.476286 0.476275 0.476265 0.476254 0.476244 0.476233 0.476223 0.476212 0.476202 0.476191 0.476181 0.476171 0.47616 0.47615 0.47614 0.476129 0.476119 0.476109 0.476099 0.476089 0.476079 0.476069 0.476059 0.476049 0.476039 0.476029 0.47602 0.47601 0.476001 0.475991 0.475982 0.475973 0.475964 0.475955 0.475946 0.475937 0.475929 0.47592 0.475912 0.475903 0.475895 0.475887 0.475879 0.475872 0.475864 0.475856 0.475849 0.475842 0.475835 0.475828 0.475822 0.475815 0.475809 0.475803 0.475797 0.475791 0.475786 0.47578 0.475775 0.47577 0.475766 0.475761 0.475757 0.475754 0.47575 0.475747 0.475744 0.475741 0.475739 0.475736 0.475735 0.475733 0.475732 0.475732 0.475731 0.475731 0.475732 0.475733 0.475734 0.475736 0.475738 0.475741 0.475744 0.475747 0.475751 0.475755 0.475759 0.475762 0.475765 0.466156 0.466154 0.466151 0.466148 0.466144 0.466141 0.466138 0.466135 0.466133 0.466131 0.466129 0.466128 0.466127 0.466126 0.466126 0.466126 0.466127 0.466128 0.466129 0.46613 0.466132 0.466134 0.466137 0.466139 0.466142 0.466145 0.466149 0.466153 0.466156 0.466161 0.466165 0.466169 0.466174 0.466179 0.466184 0.46619 0.466195 0.466201 0.466207 0.466213 0.466219 0.466225 0.466232 0.466238 0.466245 0.466252 0.466259 0.466266 0.466274 0.466281 0.466289 0.466296 0.466304 0.466312 0.46632 0.466328 0.466337 0.466345 0.466353 0.466362 0.466371 0.466379 0.466388 0.466397 0.466406 0.466415 0.466424 0.466433 0.466443 0.466452 0.466461 0.466471 0.46648 0.46649 0.466499 0.466509 0.466518 0.466528 0.466538 0.466548 0.466557 0.466567 0.466577 0.466587 0.466597 0.466607 0.466617 0.466627 0.466636 0.466646 0.466656 0.466666 0.466676 0.466686 0.466696 0.466706 0.466716 0.466726 0.466735 0.466745 0.466755 0.466765 0.466774 0.466784 0.466794 0.466803 0.466813 0.466823 0.466832 0.466842 0.466851 0.466861 0.466871 0.466881 0.46689 0.466901 0.466911 0.466922 0.466933 0.466945 0.466958 0.466972 0.466987 0.467005 0.467026 0.467051 0.467081 0.467119 0.467165 0.467225 0.467301 0.467399 0.467526 0.467694 0.467913 0.468201 0.468583 0.469087 0.469756 0.470643 0.471821 0.473387 0.47547 0.478243 0.481933 0.486848 0.493394 0.502111 0.513713 0.529136 0.549597 0.576649 0.61221 0.658538 0.718047 0.792882 0.884124 0.99068 1.10825 1.22917 1.3439 1.44386 1.52404 1.58383 1.62588 1.65419 1.67271 1.68461 1.69219 1.69699 1.70004 1.70197 1.70321 1.704 1.70451 1.70484 1.70506 1.7052 1.7053 1.70536 1.70541 1.70544 1.70546 1.70547 1.70548 1.70549 1.7055 1.70551 1.70551 1.70551 1.70552 1.70552 1.70552 1.70552 1.70552 1.70553 1.70553 1.70553 1.70553 1.70553 1.70553 1.70553 1.70553 1.70553 1.70553 1.70553 1.70552 1.70552 1.70552 1.70552 1.70551 1.70551 1.7055 1.7055 1.70549 1.70548 1.70546 1.70544 1.70541 1.70537 1.7053 1.70521 1.70507 1.70485 1.70452 1.70401 1.70323 1.702 1.70007 1.69704 1.69226 1.68473 1.67288 1.65445 1.62627 1.58441 1.52484 1.4449 1.34515 1.23054 1.10964 0.99199 0.885282 0.79386 0.718846 0.659178 0.612718 0.577051 0.549917 0.529393 0.513922 0.502285 0.493542 0.486976 0.482047 0.478346 0.475566 0.473478 0.471907 0.470727 0.469838 0.469168 0.468663 0.468281 0.467992 0.467773 0.467606 0.467479 0.467381 0.467306 0.467247 0.4672 0.467164 0.467134 0.467109 0.467089 0.467071 0.467056 0.467042 0.46703 0.467018 0.467008 0.466997 0.466987 0.466977 0.466968 0.466958 0.466949 0.466939 0.46693 0.46692 0.466911 0.466901 0.466892 0.466882 0.466873 0.466863 0.466853 0.466843 0.466834 0.466824 0.466814 0.466804 0.466794 0.466784 0.466774 0.466764 0.466754 0.466744 0.466734 0.466723 0.466713 0.466703 0.466693 0.466683 0.466672 0.466662 0.466652 0.466642 0.466632 0.466622 0.466611 0.466601 0.466591 0.466581 0.466571 0.466561 0.466551 0.466541 0.466531 0.466522 0.466512 0.466502 0.466493 0.466483 0.466473 0.466464 0.466455 0.466445 0.466436 0.466427 0.466418 0.466409 0.4664 0.466391 0.466383 0.466374 0.466366 0.466358 0.466349 0.466341 0.466333 0.466326 0.466318 0.46631 0.466303 0.466296 0.466289 0.466282 0.466275 0.466268 0.466262 0.466255 0.466249 0.466243 0.466238 0.466232 0.466227 0.466222 0.466217 0.466212 0.466208 0.466203 0.466199 0.466196 0.466192 0.466189 0.466186 0.466183 0.466181 0.466179 0.466177 0.466176 0.466175 0.466174 0.466174 0.466174 0.466174 0.466175 0.466177 0.466178 0.46618 0.466183 0.466186 0.466189 0.466192 0.466196 0.466199 0.466202 0.466204 0.45894 0.458938 0.458936 0.458934 0.458931 0.458928 0.458925 0.458922 0.45892 0.458918 0.458917 0.458916 0.458915 0.458914 0.458914 0.458914 0.458915 0.458916 0.458917 0.458919 0.45892 0.458922 0.458925 0.458927 0.45893 0.458933 0.458937 0.45894 0.458944 0.458948 0.458952 0.458957 0.458961 0.458966 0.458971 0.458976 0.458982 0.458987 0.458993 0.458999 0.459005 0.459011 0.459017 0.459024 0.45903 0.459037 0.459044 0.459051 0.459058 0.459065 0.459073 0.45908 0.459088 0.459096 0.459103 0.459111 0.459119 0.459128 0.459136 0.459144 0.459152 0.459161 0.45917 0.459178 0.459187 0.459196 0.459205 0.459214 0.459222 0.459232 0.459241 0.45925 0.459259 0.459268 0.459278 0.459287 0.459296 0.459306 0.459315 0.459325 0.459334 0.459344 0.459353 0.459363 0.459373 0.459382 0.459392 0.459402 0.459411 0.459421 0.45943 0.45944 0.45945 0.459459 0.459469 0.459479 0.459488 0.459498 0.459507 0.459517 0.459526 0.459536 0.459545 0.459555 0.459564 0.459574 0.459583 0.459592 0.459602 0.459611 0.45962 0.45963 0.459639 0.459649 0.459658 0.459668 0.459678 0.459688 0.459699 0.459711 0.459723 0.459737 0.459752 0.459769 0.459789 0.459813 0.459842 0.459878 0.459922 0.459979 0.460051 0.460145 0.460267 0.460426 0.460635 0.460911 0.461274 0.461754 0.462391 0.463235 0.464355 0.465843 0.467821 0.470452 0.473951 0.478607 0.484801 0.49304 0.503992 0.518531 0.537792 0.563222 0.59661 0.640071 0.695902 0.766221 0.852291 0.953539 1.06654 1.1847 1.2992 1.40149 1.4858 1.5504 1.59699 1.62909 1.6505 1.66448 1.67351 1.6793 1.68302 1.6854 1.68693 1.68792 1.68856 1.68898 1.68926 1.68944 1.68957 1.68965 1.68971 1.68975 1.68978 1.6898 1.68981 1.68982 1.68983 1.68984 1.68984 1.68985 1.68985 1.68985 1.68986 1.68986 1.68986 1.68986 1.68986 1.68986 1.68986 1.68986 1.68986 1.68986 1.68986 1.68986 1.68986 1.68986 1.68986 1.68986 1.68985 1.68985 1.68985 1.68984 1.68983 1.68983 1.68982 1.6898 1.68978 1.68975 1.68971 1.68966 1.68958 1.68945 1.68927 1.689 1.68858 1.68794 1.68695 1.68543 1.68306 1.67936 1.6736 1.66462 1.6507 1.62939 1.59744 1.55103 1.48665 1.40257 1.30046 1.18605 1.06789 0.95479 0.853389 0.767142 0.696653 0.640673 0.597088 0.563601 0.538094 0.518774 0.504191 0.493206 0.484942 0.478729 0.47406 0.470551 0.467913 0.46593 0.464438 0.463315 0.46247 0.461832 0.461351 0.460988 0.460712 0.460504 0.460344 0.460223 0.46013 0.460058 0.460001 0.459957 0.459922 0.459893 0.45987 0.45985 0.459833 0.459819 0.459805 0.459793 0.459782 0.459772 0.459762 0.459752 0.459742 0.459733 0.459724 0.459715 0.459705 0.459696 0.459687 0.459678 0.459669 0.459659 0.45965 0.459641 0.459631 0.459622 0.459612 0.459603 0.459593 0.459584 0.459574 0.459564 0.459555 0.459545 0.459535 0.459525 0.459515 0.459506 0.459496 0.459486 0.459476 0.459466 0.459456 0.459446 0.459436 0.459426 0.459416 0.459407 0.459397 0.459387 0.459377 0.459367 0.459357 0.459348 0.459338 0.459328 0.459319 0.459309 0.459299 0.45929 0.459281 0.459271 0.459262 0.459253 0.459243 0.459234 0.459225 0.459216 0.459207 0.459199 0.45919 0.459181 0.459173 0.459164 0.459156 0.459148 0.45914 0.459132 0.459124 0.459116 0.459109 0.459101 0.459094 0.459087 0.45908 0.459073 0.459066 0.459059 0.459053 0.459047 0.45904 0.459035 0.459029 0.459023 0.459018 0.459013 0.459008 0.459003 0.458998 0.458994 0.45899 0.458986 0.458982 0.458979 0.458976 0.458973 0.45897 0.458968 0.458966 0.458964 0.458963 0.458962 0.458961 0.458961 0.458961 0.458961 0.458962 0.458963 0.458965 0.458967 0.458969 0.458971 0.458974 0.458977 0.45898 0.458983 0.458986 0.458987 0.453498 0.453497 0.453496 0.453493 0.453491 0.453488 0.453486 0.453484 0.453482 0.45348 0.453479 0.453478 0.453477 0.453477 0.453477 0.453477 0.453478 0.453479 0.45348 0.453481 0.453483 0.453485 0.453487 0.45349 0.453493 0.453496 0.453499 0.453503 0.453506 0.45351 0.453514 0.453519 0.453523 0.453528 0.453533 0.453538 0.453543 0.453549 0.453554 0.45356 0.453566 0.453572 0.453578 0.453584 0.453591 0.453597 0.453604 0.453611 0.453618 0.453625 0.453632 0.453639 0.453647 0.453654 0.453662 0.45367 0.453677 0.453685 0.453693 0.453701 0.45371 0.453718 0.453726 0.453735 0.453743 0.453752 0.45376 0.453769 0.453778 0.453787 0.453795 0.453804 0.453813 0.453822 0.453831 0.453841 0.45385 0.453859 0.453868 0.453877 0.453887 0.453896 0.453905 0.453915 0.453924 0.453933 0.453943 0.453952 0.453962 0.453971 0.45398 0.45399 0.453999 0.454009 0.454018 0.454027 0.454037 0.454046 0.454055 0.454065 0.454074 0.454083 0.454092 0.454101 0.454111 0.45412 0.454129 0.454138 0.454147 0.454156 0.454165 0.454174 0.454183 0.454193 0.454202 0.454211 0.454221 0.454231 0.454241 0.454253 0.454264 0.454278 0.454292 0.454309 0.454328 0.454351 0.454378 0.454412 0.454455 0.454509 0.454577 0.454666 0.454781 0.454932 0.45513 0.45539 0.455733 0.456187 0.456787 0.457582 0.458637 0.460038 0.461897 0.464368 0.46765 0.472011 0.477804 0.485499 0.495708 0.509236 0.527125 0.550698 0.5816 0.621786 0.673416 0.738577 0.818727 0.913859 1.02155 1.13642 1.25063 1.3558 1.44536 1.51628 1.56903 1.60637 1.63186 1.64885 1.66 1.66725 1.67195 1.675 1.67698 1.67828 1.67912 1.67968 1.68005 1.68029 1.68046 1.68057 1.68065 1.6807 1.68074 1.68077 1.68079 1.6808 1.68082 1.68082 1.68083 1.68084 1.68084 1.68084 1.68085 1.68085 1.68085 1.68085 1.68085 1.68086 1.68086 1.68086 1.68086 1.68086 1.68086 1.68085 1.68085 1.68085 1.68085 1.68085 1.68084 1.68084 1.68083 1.68083 1.68082 1.68081 1.6808 1.68078 1.68075 1.68071 1.68066 1.68058 1.68047 1.6803 1.68006 1.67969 1.67914 1.6783 1.67701 1.67504 1.67201 1.66733 1.66011 1.64901 1.63211 1.60673 1.56954 1.51699 1.44629 1.35693 1.25191 1.13775 1.02285 0.915044 0.819754 0.739434 0.674114 0.622345 0.582045 0.551052 0.527407 0.509465 0.495895 0.485655 0.477938 0.472128 0.467754 0.464463 0.461986 0.460122 0.458718 0.457661 0.456864 0.456262 0.455808 0.455465 0.455205 0.455007 0.454857 0.454742 0.454653 0.454585 0.454532 0.45449 0.454456 0.454429 0.454406 0.454388 0.454372 0.454357 0.454345 0.454333 0.454322 0.454312 0.454303 0.454293 0.454284 0.454275 0.454266 0.454257 0.454248 0.454239 0.45423 0.454221 0.454212 0.454203 0.454194 0.454185 0.454176 0.454167 0.454158 0.454148 0.454139 0.45413 0.45412 0.454111 0.454101 0.454092 0.454082 0.454073 0.454063 0.454054 0.454044 0.454034 0.454025 0.454015 0.454005 0.453996 0.453986 0.453976 0.453967 0.453957 0.453948 0.453938 0.453928 0.453919 0.453909 0.4539 0.45389 0.453881 0.453871 0.453862 0.453853 0.453844 0.453834 0.453825 0.453816 0.453807 0.453798 0.453789 0.45378 0.453772 0.453763 0.453755 0.453746 0.453738 0.453729 0.453721 0.453713 0.453705 0.453697 0.453689 0.453682 0.453674 0.453667 0.45366 0.453652 0.453645 0.453639 0.453632 0.453625 0.453619 0.453612 0.453606 0.4536 0.453595 0.453589 0.453584 0.453578 0.453573 0.453568 0.453564 0.453559 0.453555 0.453551 0.453547 0.453544 0.45354 0.453537 0.453534 0.453532 0.45353 0.453528 0.453526 0.453525 0.453523 0.453523 0.453522 0.453522 0.453523 0.453523 0.453524 0.453526 0.453527 0.453529 0.453531 0.453534 0.453536 0.453539 0.453541 0.453543 0.453544 0.449397 0.449397 0.449395 0.449394 0.449392 0.44939 0.449388 0.449386 0.449384 0.449383 0.449382 0.449381 0.44938 0.44938 0.44938 0.44938 0.449381 0.449382 0.449383 0.449385 0.449386 0.449389 0.449391 0.449393 0.449396 0.449399 0.449402 0.449406 0.449409 0.449413 0.449417 0.449421 0.449426 0.44943 0.449435 0.44944 0.449445 0.449451 0.449456 0.449462 0.449467 0.449473 0.449479 0.449485 0.449492 0.449498 0.449505 0.449511 0.449518 0.449525 0.449532 0.449539 0.449546 0.449554 0.449561 0.449569 0.449576 0.449584 0.449592 0.4496 0.449608 0.449616 0.449624 0.449632 0.449641 0.449649 0.449657 0.449666 0.449674 0.449683 0.449692 0.449701 0.449709 0.449718 0.449727 0.449736 0.449745 0.449754 0.449763 0.449772 0.449781 0.44979 0.449799 0.449808 0.449817 0.449827 0.449836 0.449845 0.449854 0.449863 0.449872 0.449882 0.449891 0.4499 0.449909 0.449918 0.449927 0.449936 0.449945 0.449955 0.449963 0.449973 0.449981 0.44999 0.449999 0.450008 0.450017 0.450026 0.450035 0.450044 0.450052 0.450061 0.45007 0.450079 0.450088 0.450097 0.450107 0.450117 0.450127 0.450137 0.450149 0.450161 0.450175 0.450191 0.450209 0.450231 0.450257 0.450289 0.450329 0.45038 0.450445 0.450529 0.450637 0.450779 0.450965 0.451209 0.45153 0.451955 0.452517 0.453261 0.454246 0.455553 0.457285 0.459584 0.462633 0.466678 0.472041 0.479151 0.488564 0.501011 0.517432 0.539025 0.567279 0.60398 0.651139 0.710787 0.784543 0.872932 0.97451 1.08519 1.19833 1.30597 1.40099 1.47901 1.53907 1.5829 1.61362 1.63454 1.64851 1.65775 1.66381 1.66779 1.6704 1.67211 1.67324 1.67399 1.6745 1.67483 1.67506 1.67522 1.67533 1.6754 1.67545 1.67549 1.67552 1.67554 1.67555 1.67557 1.67557 1.67558 1.67559 1.67559 1.6756 1.6756 1.6756 1.6756 1.6756 1.67561 1.67561 1.67561 1.67561 1.67561 1.67561 1.6756 1.6756 1.6756 1.6756 1.67559 1.67559 1.67559 1.67558 1.67557 1.67556 1.67554 1.67552 1.6755 1.67546 1.67541 1.67533 1.67523 1.67507 1.67484 1.67451 1.67401 1.67326 1.67214 1.67043 1.66783 1.66388 1.65784 1.64865 1.63474 1.61392 1.58333 1.53966 1.4798 1.40199 1.30715 1.19962 1.0865 0.975749 0.874042 0.785495 0.711576 0.65178 0.604493 0.567688 0.539351 0.517694 0.501224 0.48874 0.479298 0.472168 0.466789 0.462732 0.459675 0.45737 0.455633 0.454324 0.453337 0.452591 0.452029 0.451603 0.451282 0.451037 0.450852 0.450711 0.450603 0.450519 0.450455 0.450404 0.450365 0.450333 0.450307 0.450286 0.450268 0.450253 0.450239 0.450227 0.450216 0.450206 0.450196 0.450186 0.450177 0.450168 0.45016 0.450151 0.450142 0.450133 0.450125 0.450116 0.450107 0.450099 0.45009 0.450081 0.450072 0.450063 0.450054 0.450045 0.450036 0.450027 0.450018 0.450009 0.45 0.44999 0.449981 0.449972 0.449963 0.449953 0.449944 0.449934 0.449925 0.449916 0.449906 0.449897 0.449887 0.449878 0.449869 0.449859 0.44985 0.44984 0.449831 0.449822 0.449812 0.449803 0.449794 0.449784 0.449775 0.449766 0.449757 0.449748 0.449739 0.44973 0.449721 0.449712 0.449703 0.449694 0.449686 0.449677 0.449669 0.44966 0.449652 0.449644 0.449635 0.449627 0.449619 0.449611 0.449604 0.449596 0.449588 0.449581 0.449574 0.449566 0.449559 0.449552 0.449545 0.449539 0.449532 0.449526 0.449519 0.449513 0.449507 0.449501 0.449496 0.44949 0.449485 0.44948 0.449475 0.44947 0.449465 0.449461 0.449457 0.449453 0.449449 0.449446 0.449442 0.449439 0.449437 0.449434 0.449432 0.44943 0.449428 0.449427 0.449426 0.449425 0.449425 0.449424 0.449425 0.449425 0.449426 0.449427 0.449428 0.44943 0.449432 0.449434 0.449436 0.449438 0.44944 0.449441 0.449442 0.446308 0.446308 0.446307 0.446305 0.446304 0.446302 0.4463 0.446299 0.446298 0.446296 0.446296 0.446295 0.446295 0.446294 0.446295 0.446295 0.446296 0.446297 0.446298 0.4463 0.446301 0.446303 0.446306 0.446308 0.446311 0.446314 0.446317 0.44632 0.446324 0.446328 0.446332 0.446336 0.44634 0.446345 0.446349 0.446354 0.446359 0.446364 0.44637 0.446375 0.446381 0.446387 0.446392 0.446398 0.446405 0.446411 0.446417 0.446424 0.44643 0.446437 0.446444 0.446451 0.446458 0.446465 0.446473 0.44648 0.446488 0.446495 0.446503 0.446511 0.446518 0.446526 0.446534 0.446542 0.446551 0.446559 0.446567 0.446575 0.446584 0.446592 0.446601 0.446609 0.446618 0.446626 0.446635 0.446644 0.446653 0.446661 0.44667 0.446679 0.446688 0.446697 0.446706 0.446715 0.446724 0.446733 0.446741 0.446751 0.446759 0.446768 0.446777 0.446786 0.446795 0.446804 0.446813 0.446822 0.446831 0.44684 0.446849 0.446858 0.446866 0.446875 0.446884 0.446893 0.446901 0.44691 0.446919 0.446928 0.446936 0.446945 0.446953 0.446962 0.446971 0.446979 0.446988 0.446997 0.447006 0.447016 0.447025 0.447036 0.447047 0.447059 0.447072 0.447087 0.447104 0.447125 0.44715 0.44718 0.447218 0.447266 0.447326 0.447405 0.447506 0.447639 0.447812 0.44804 0.448339 0.448735 0.449256 0.449947 0.45086 0.452069 0.453671 0.455792 0.4586 0.462319 0.467239 0.473747 0.482343 0.493681 0.508601 0.528176 0.553738 0.5869 0.629511 0.683518 0.750642 0.831842 0.926558 1.03198 1.14278 1.2518 1.35169 1.43694 1.50505 1.55645 1.59354 1.6194 1.63703 1.64887 1.65675 1.66198 1.66544 1.66774 1.66927 1.67029 1.67098 1.67145 1.67176 1.67198 1.67213 1.67224 1.67231 1.67236 1.6724 1.67243 1.67245 1.67247 1.67248 1.67249 1.6725 1.6725 1.67251 1.67251 1.67251 1.67252 1.67252 1.67252 1.67252 1.67252 1.67252 1.67252 1.67252 1.67252 1.67252 1.67251 1.67251 1.67251 1.6725 1.67249 1.67248 1.67247 1.67246 1.67244 1.67241 1.67237 1.67232 1.67224 1.67214 1.67199 1.67177 1.67146 1.671 1.67031 1.66929 1.66777 1.66548 1.66204 1.65684 1.64899 1.63721 1.61966 1.5939 1.55696 1.50574 1.43783 1.35277 1.25301 1.14407 1.03324 0.927727 0.832872 0.751514 0.684236 0.630093 0.587366 0.554111 0.528474 0.508842 0.493878 0.482506 0.473885 0.467359 0.462424 0.458695 0.455879 0.453753 0.452148 0.450935 0.45002 0.449329 0.448806 0.44841 0.448111 0.447883 0.44771 0.447578 0.447477 0.447399 0.447339 0.447291 0.447254 0.447224 0.4472 0.447179 0.447163 0.447148 0.447135 0.447123 0.447113 0.447103 0.447093 0.447084 0.447075 0.447067 0.447058 0.44705 0.447041 0.447033 0.447024 0.447016 0.447007 0.446999 0.44699 0.446981 0.446973 0.446964 0.446955 0.446947 0.446938 0.446929 0.44692 0.446911 0.446902 0.446893 0.446884 0.446875 0.446866 0.446856 0.446847 0.446838 0.446829 0.44682 0.446811 0.446801 0.446792 0.446783 0.446774 0.446764 0.446755 0.446746 0.446737 0.446728 0.446719 0.446709 0.4467 0.446691 0.446682 0.446673 0.446664 0.446656 0.446647 0.446638 0.446629 0.44662 0.446612 0.446603 0.446595 0.446586 0.446578 0.44657 0.446562 0.446553 0.446545 0.446537 0.44653 0.446522 0.446514 0.446507 0.446499 0.446492 0.446485 0.446478 0.446471 0.446464 0.446457 0.446451 0.446444 0.446438 0.446432 0.446426 0.44642 0.446414 0.446409 0.446403 0.446398 0.446393 0.446388 0.446383 0.446379 0.446375 0.446371 0.446367 0.446363 0.44636 0.446356 0.446353 0.446351 0.446348 0.446346 0.446344 0.446342 0.446341 0.44634 0.446339 0.446338 0.446338 0.446338 0.446338 0.446339 0.44634 0.446341 0.446342 0.446344 0.446346 0.446347 0.446349 0.44635 0.446351 0.446352 0.443982 0.443981 0.443981 0.44398 0.443978 0.443977 0.443976 0.443975 0.443974 0.443973 0.443972 0.443972 0.443971 0.443971 0.443972 0.443972 0.443973 0.443974 0.443975 0.443977 0.443979 0.443981 0.443983 0.443986 0.443988 0.443991 0.443994 0.443998 0.444001 0.444005 0.444009 0.444013 0.444017 0.444022 0.444026 0.444031 0.444036 0.444041 0.444046 0.444051 0.444057 0.444063 0.444068 0.444074 0.44408 0.444087 0.444093 0.444099 0.444106 0.444113 0.444119 0.444126 0.444133 0.44414 0.444147 0.444155 0.444162 0.444169 0.444177 0.444185 0.444192 0.4442 0.444208 0.444216 0.444224 0.444232 0.44424 0.444248 0.444256 0.444265 0.444273 0.444281 0.44429 0.444298 0.444307 0.444315 0.444324 0.444333 0.444341 0.44435 0.444359 0.444367 0.444376 0.444385 0.444394 0.444402 0.444411 0.44442 0.444429 0.444438 0.444446 0.444455 0.444464 0.444473 0.444481 0.44449 0.444499 0.444508 0.444516 0.444525 0.444534 0.444542 0.444551 0.444559 0.444568 0.444576 0.444585 0.444593 0.444602 0.44461 0.444619 0.444627 0.444635 0.444644 0.444653 0.444661 0.44467 0.444679 0.444689 0.444699 0.444709 0.444721 0.444733 0.444748 0.444764 0.444784 0.444807 0.444836 0.444871 0.444916 0.444973 0.445046 0.44514 0.445263 0.445424 0.445635 0.445912 0.446278 0.44676 0.447396 0.448237 0.449348 0.450817 0.452759 0.455326 0.458717 0.463194 0.4691 0.476882 0.487118 0.500555 0.518138 0.54105 0.570733 0.608867 0.657281 0.717735 0.791499 0.878746 0.977831 1.0848 1.19359 1.2971 1.38905 1.46545 1.52527 1.56983 1.60176 1.62401 1.63922 1.6495 1.6564 1.66102 1.66412 1.66619 1.66759 1.66854 1.66919 1.66963 1.66993 1.67015 1.6703 1.6704 1.67048 1.67053 1.67057 1.6706 1.67062 1.67064 1.67065 1.67066 1.67067 1.67068 1.67068 1.67069 1.67069 1.67069 1.67069 1.6707 1.6707 1.6707 1.6707 1.67069 1.67069 1.67069 1.67069 1.67068 1.67068 1.67067 1.67066 1.67065 1.67063 1.67061 1.67058 1.67054 1.67048 1.67041 1.6703 1.67016 1.66995 1.66964 1.6692 1.66856 1.66762 1.66622 1.66416 1.66107 1.65647 1.64961 1.63937 1.62423 1.60207 1.57027 1.52588 1.46624 1.39002 1.29824 1.19482 1.08606 0.979033 0.879835 0.792443 0.718526 0.65793 0.609391 0.571154 0.541388 0.518409 0.500775 0.4873 0.477033 0.469229 0.463306 0.458817 0.455417 0.452843 0.450896 0.449424 0.44831 0.447467 0.44683 0.446347 0.445982 0.445704 0.445493 0.445333 0.44521 0.445116 0.445043 0.444987 0.444943 0.444908 0.44488 0.444857 0.444838 0.444822 0.444808 0.444796 0.444784 0.444774 0.444764 0.444755 0.444746 0.444738 0.444729 0.444721 0.444713 0.444705 0.444696 0.444688 0.44468 0.444672 0.444663 0.444655 0.444646 0.444638 0.444629 0.444621 0.444612 0.444604 0.444595 0.444586 0.444577 0.444569 0.44456 0.444551 0.444542 0.444533 0.444524 0.444515 0.444506 0.444497 0.444488 0.444479 0.44447 0.444461 0.444452 0.444443 0.444434 0.444425 0.444416 0.444407 0.444398 0.444389 0.44438 0.444371 0.444362 0.444353 0.444344 0.444336 0.444327 0.444318 0.444309 0.444301 0.444292 0.444284 0.444276 0.444267 0.444259 0.444251 0.444243 0.444235 0.444227 0.444219 0.444211 0.444203 0.444196 0.444188 0.444181 0.444174 0.444166 0.444159 0.444152 0.444145 0.444139 0.444132 0.444126 0.444119 0.444113 0.444107 0.444101 0.444095 0.44409 0.444084 0.444079 0.444074 0.444069 0.444064 0.44406 0.444055 0.444051 0.444047 0.444043 0.44404 0.444036 0.444033 0.44403 0.444027 0.444025 0.444023 0.444021 0.444019 0.444017 0.444016 0.444015 0.444015 0.444014 0.444014 0.444014 0.444015 0.444015 0.444016 0.444017 0.444019 0.44402 0.444021 0.444022 0.444023 0.444024 0.444025 0.44223 0.44223 0.442229 0.442229 0.442228 0.442227 0.442226 0.442225 0.442224 0.442223 0.442223 0.442223 0.442223 0.442223 0.442223 0.442224 0.442225 0.442226 0.442227 0.442229 0.442231 0.442233 0.442235 0.442237 0.44224 0.442243 0.442246 0.442249 0.442253 0.442257 0.44226 0.442265 0.442269 0.442273 0.442278 0.442282 0.442287 0.442292 0.442297 0.442303 0.442308 0.442314 0.442319 0.442325 0.442331 0.442337 0.442343 0.44235 0.442356 0.442363 0.442369 0.442376 0.442383 0.44239 0.442397 0.442404 0.442411 0.442419 0.442426 0.442434 0.442441 0.442449 0.442456 0.442464 0.442472 0.44248 0.442488 0.442496 0.442504 0.442512 0.44252 0.442529 0.442537 0.442545 0.442554 0.442562 0.442571 0.442579 0.442588 0.442596 0.442605 0.442613 0.442622 0.442631 0.442639 0.442648 0.442656 0.442665 0.442674 0.442682 0.442691 0.4427 0.442708 0.442717 0.442726 0.442734 0.442743 0.442751 0.44276 0.442768 0.442777 0.442785 0.442794 0.442802 0.44281 0.442819 0.442827 0.442835 0.442844 0.442852 0.44286 0.442868 0.442877 0.442885 0.442893 0.442902 0.44291 0.442919 0.442928 0.442938 0.442948 0.442959 0.442971 0.442985 0.443001 0.443019 0.443041 0.443068 0.443101 0.443143 0.443195 0.443263 0.443351 0.443465 0.443613 0.443808 0.444063 0.444399 0.444841 0.445424 0.446193 0.447208 0.448546 0.450312 0.452641 0.45571 0.459753 0.465072 0.472061 0.48123 0.493233 0.508899 0.529268 0.555614 0.589445 0.632453 0.686365 0.752646 0.832018 0.923829 1.02545 1.13211 1.23744 1.33485 1.41921 1.48791 1.54092 1.58008 1.60806 1.62758 1.641 1.65013 1.65632 1.6605 1.66334 1.66526 1.66657 1.66747 1.6681 1.66853 1.66883 1.66904 1.66919 1.6693 1.66938 1.66944 1.66948 1.66951 1.66954 1.66955 1.66957 1.66958 1.66959 1.66959 1.6696 1.6696 1.66961 1.66961 1.66961 1.66961 1.66961 1.66961 1.66961 1.66961 1.6696 1.6696 1.66959 1.66958 1.66957 1.66956 1.66954 1.66952 1.66948 1.66944 1.66938 1.66931 1.6692 1.66905 1.66884 1.66854 1.66811 1.66749 1.6666 1.66529 1.66337 1.66055 1.65639 1.65023 1.64114 1.62778 1.60833 1.58047 1.54145 1.48861 1.4201 1.33591 1.23862 1.13335 1.02667 0.924959 0.83302 0.753501 0.687076 0.633035 0.589915 0.555992 0.529572 0.509145 0.493434 0.481397 0.472202 0.465193 0.459858 0.455805 0.452727 0.450392 0.448622 0.447281 0.446264 0.445493 0.444909 0.444467 0.444131 0.443875 0.443681 0.443533 0.443419 0.443332 0.443265 0.443213 0.443171 0.443139 0.443112 0.443091 0.443073 0.443058 0.443044 0.443033 0.443022 0.443012 0.443003 0.442994 0.442985 0.442977 0.442969 0.442961 0.442953 0.442945 0.442937 0.442929 0.44292 0.442912 0.442904 0.442896 0.442888 0.442879 0.442871 0.442863 0.442854 0.442846 0.442837 0.442828 0.44282 0.442811 0.442802 0.442794 0.442785 0.442776 0.442767 0.442759 0.44275 0.442741 0.442732 0.442723 0.442714 0.442705 0.442696 0.442688 0.442679 0.44267 0.442661 0.442652 0.442643 0.442634 0.442626 0.442617 0.442608 0.442599 0.442591 0.442582 0.442574 0.442565 0.442557 0.442548 0.44254 0.442531 0.442523 0.442515 0.442507 0.442499 0.442491 0.442483 0.442475 0.442467 0.44246 0.442452 0.442445 0.442437 0.44243 0.442423 0.442416 0.442409 0.442402 0.442395 0.442389 0.442382 0.442376 0.442369 0.442363 0.442357 0.442352 0.442346 0.44234 0.442335 0.44233 0.442325 0.44232 0.442315 0.442311 0.442306 0.442302 0.442298 0.442294 0.442291 0.442287 0.442284 0.442281 0.442279 0.442276 0.442274 0.442272 0.44227 0.442269 0.442267 0.442266 0.442266 0.442265 0.442265 0.442265 0.442265 0.442265 0.442266 0.442267 0.442268 0.442269 0.44227 0.442271 0.442271 0.442272 0.442272 0.440912 0.440911 0.440911 0.44091 0.44091 0.440909 0.440908 0.440908 0.440907 0.440907 0.440906 0.440906 0.440906 0.440907 0.440907 0.440908 0.440909 0.44091 0.440912 0