# vtk DataFile Version 3.0
Immiscible displacement
ASCII
DATASET RECTILINEAR_GRID
DIMENSIONS 400 100 1
X_COORDINATES 400 double
1 2 3 4 5 6 7 8 9 10 11 12 13 14 15 16 17 18 19 20 21 22 23 24 25 26 27 28 29 30 31 32 33 34 35 36 37 38 39 40 41 42 43 44 45 46 47 48 49 50 51 52 53 54 55 56 57 58 59 60 61 62 63 64 65 66 67 68 69 70 71 72 73 74 75 76 77 78 79 80 81 82 83 84 85 86 87 88 89 90 91 92 93 94 95 96 97 98 99 100 101 102 103 104 105 106 107 108 109 110 111 112 113 114 115 116 117 118 119 120 121 122 123 124 125 126 127 128 129 130 131 132 133 134 135 136 137 138 139 140 141 142 143 144 145 146 147 148 149 150 151 152 153 154 155 156 157 158 159 160 161 162 163 164 165 166 167 168 169 170 171 172 173 174 175 176 177 178 179 180 181 182 183 184 185 186 187 188 189 190 191 192 193 194 195 196 197 198 199 200 201 202 203 204 205 206 207 208 209 210 211 212 213 214 215 216 217 218 219 220 221 222 223 224 225 226 227 228 229 230 231 232 233 234 235 236 237 238 239 240 241 242 243 244 245 246 247 248 249 250 251 252 253 254 255 256 257 258 259 260 261 262 263 264 265 266 267 268 269 270 271 272 273 274 275 276 277 278 279 280 281 282 283 284 285 286 287 288 289 290 291 292 293 294 295 296 297 298 299 300 301 302 303 304 305 306 307 308 309 310 311 312 313 314 315 316 317 318 319 320 321 322 323 324 325 326 327 328 329 330 331 332 333 334 335 336 337 338 339 340 341 342 343 344 345 346 347 348 349 350 351 352 353 354 355 356 357 358 359 360 361 362 363 364 365 366 367 368 369 370 371 372 373 374 375 376 377 378 379 380 381 382 383 384 385 386 387 388 389 390 391 392 393 394 395 396 397 398 399 400 
Y_COORDINATES 100 double
1 2 3 4 5 6 7 8 9 10 11 12 13 14 15 16 17 18 19 20 21 22 23 24 25 26 27 28 29 30 31 32 33 34 35 36 37 38 39 40 41 42 43 44 45 46 47 48 49 50 51 52 53 54 55 56 57 58 59 60 61 62 63 64 65 66 67 68 69 70 71 72 73 74 75 76 77 78 79 80 81 82 83 84 85 86 87 88 89 90 91 92 93 94 95 96 97 98 99 100 
Z_COORDINATES 1 double
0
POINT_DATA 40000
SCALARS rho double 1
LOOKUP_TABLE default
0.475912 0.475909 0.475904 0.4759 0.475898 0.475897 0.475899 0.475904 0.475911 0.475921 0.475933 0.475949 0.475967 0.475989 0.476013 0.476039 0.476069 0.476101 0.476135 0.476172 0.476212 0.476253 0.476298 0.476344 0.476392 0.476443 0.476496 0.47655 0.476607 0.476665 0.476725 0.476786 0.47685 0.476914 0.47698 0.477047 0.477116 0.477186 0.477257 0.477328 0.477401 0.477474 0.477548 0.477623 0.477698 0.477774 0.47785 0.477926 0.478003 0.478079 0.478156 0.478232 0.478308 0.478384 0.47846 0.478535 0.478609 0.478683 0.478756 0.478828 0.478899 0.47897 0.479039 0.479107 0.479174 0.479239 0.479303 0.479366 0.479427 0.479486 0.479544 0.4796 0.479654 0.479707 0.479757 0.479805 0.479851 0.479895 0.479937 0.479977 0.480014 0.480049 0.480081 0.480111 0.480138 0.480163 0.480185 0.480204 0.48022 0.480234 0.480244 0.480252 0.480257 0.480258 0.480257 0.480252 0.480244 0.480233 0.480219 0.480202 0.480181 0.480156 0.480129 0.480098 0.480063 0.480025 0.479984 0.479939 0.479891 0.479839 0.479784 0.479725 0.479663 0.479597 0.479529 0.479457 0.479381 0.479303 0.479222 0.479138 0.479052 0.478964 0.478874 0.478784 0.478693 0.478603 0.478515 0.478432 0.478354 0.478286 0.478232 0.478196 0.478186 0.478211 0.478283 0.47842 0.478642 0.478978 0.479467 0.48016 0.481124 0.482449 0.484256 0.486704 0.490006 0.494446 0.500401 0.508373 0.519025 0.533234 0.552141 0.57722 0.610316 0.653651 0.709707 0.780881 0.868797 0.973217 1.09084 1.2147 1.33515 1.44255 1.53039 1.59681 1.64389 1.67568 1.69644 1.70973 1.71814 1.72343 1.72675 1.72885 1.73016 1.731 1.73152 1.73186 1.73207 1.7322 1.73228 1.73233 1.73236 1.73238 1.73239 1.73239 1.73239 1.73238 1.73238 1.73237 1.73237 1.73236 1.73236 1.73235 1.73235 1.73235 1.73234 1.73234 1.73234 1.73234 1.73233 1.73233 1.73233 1.73233 1.73233 1.73234 1.73234 1.73234 1.73234 1.73235 1.73235 1.73235 1.73236 1.73236 1.73237 1.73237 1.73237 1.73237 1.73237 1.73236 1.73234 1.73231 1.73226 1.73218 1.73205 1.73183 1.7315 1.73097 1.73013 1.7288 1.72669 1.72333 1.718 1.70952 1.69612 1.67519 1.64317 1.59577 1.52898 1.44075 1.33304 1.21243 1.0886 0.971153 0.867002 0.779386 0.708495 0.652684 0.609549 0.576612 0.551656 0.532841 0.518703 0.508104 0.500173 0.494248 0.489831 0.486547 0.484112 0.482316 0.480998 0.480041 0.479353 0.478868 0.478535 0.478317 0.478183 0.478113 0.47809 0.478102 0.47814 0.478197 0.478267 0.478346 0.478432 0.478521 0.478613 0.478706 0.478798 0.47889 0.47898 0.479068 0.479154 0.479237 0.479317 0.479394 0.479469 0.479539 0.479607 0.479671 0.479732 0.47979 0.479843 0.479894 0.479941 0.479985 0.480025 0.480062 0.480095 0.480125 0.480151 0.480174 0.480194 0.480211 0.480224 0.480234 0.480241 0.480245 0.480246 0.480244 0.480238 0.48023 0.480219 0.480205 0.480188 0.480169 0.480146 0.480122 0.480094 0.480064 0.480031 0.479997 0.479959 0.47992 0.479878 0.479834 0.479788 0.479739 0.479689 0.479637 0.479583 0.479527 0.479469 0.47941 0.479349 0.479286 0.479223 0.479157 0.479091 0.479023 0.478954 0.478884 0.478812 0.47874 0.478668 0.478594 0.47852 0.478445 0.47837 0.478294 0.478218 0.478142 0.478065 0.477989 0.477912 0.477836 0.47776 0.477684 0.477609 0.477534 0.47746 0.477387 0.477314 0.477242 0.477172 0.477102 0.477033 0.476966 0.4769 0.476835 0.476772 0.47671 0.47665 0.476592 0.476536 0.476481 0.476428 0.476378 0.476329 0.476283 0.476239 0.476197 0.476158 0.476121 0.476087 0.476055 0.476026 0.476 0.475976 0.475956 0.475938 0.475923 0.475911 0.475902 0.475896 0.475892 0.475891 0.475893 0.475896 0.475901 0.475907 0.475911 0.466346 0.466344 0.466341 0.466338 0.466336 0.466336 0.466338 0.466343 0.46635 0.46636 0.466373 0.466388 0.466407 0.466427 0.466451 0.466477 0.466505 0.466537 0.46657 0.466606 0.466645 0.466685 0.466728 0.466773 0.46682 0.466869 0.466921 0.466974 0.467028 0.467085 0.467143 0.467203 0.467264 0.467327 0.467391 0.467457 0.467523 0.467591 0.46766 0.467729 0.4678 0.467871 0.467943 0.468016 0.468089 0.468162 0.468236 0.46831 0.468385 0.468459 0.468533 0.468607 0.468681 0.468755 0.468828 0.468901 0.468974 0.469045 0.469116 0.469186 0.469256 0.469324 0.469391 0.469457 0.469522 0.469586 0.469648 0.469709 0.469768 0.469826 0.469882 0.469937 0.469989 0.47004 0.470089 0.470136 0.470181 0.470224 0.470264 0.470303 0.470339 0.470373 0.470404 0.470433 0.47046 0.470483 0.470505 0.470523 0.470539 0.470552 0.470563 0.47057 0.470575 0.470576 0.470575 0.47057 0.470563 0.470552 0.470538 0.470521 0.470501 0.470477 0.47045 0.47042 0.470386 0.47035 0.470309 0.470266 0.470219 0.470169 0.470115 0.470058 0.469997 0.469934 0.469867 0.469797 0.469724 0.469648 0.469569 0.469488 0.469404 0.469319 0.469232 0.469144 0.469056 0.468968 0.468883 0.468802 0.468726 0.46866 0.468607 0.468572 0.468561 0.468585 0.468654 0.468785 0.468997 0.469321 0.46979 0.470456 0.471382 0.472656 0.474391 0.476742 0.479913 0.484174 0.489886 0.497528 0.507734 0.521337 0.539425 0.563397 0.595007 0.636372 0.689862 0.757805 0.841851 0.941994 1.05542 1.17587 1.29435 1.40152 1.4906 1.55911 1.60846 1.64229 1.66468 1.67917 1.68842 1.6943 1.69802 1.70037 1.70187 1.70282 1.70342 1.70381 1.70405 1.70421 1.70431 1.70437 1.7044 1.70442 1.70444 1.70444 1.70444 1.70444 1.70443 1.70443 1.70443 1.70442 1.70442 1.70441 1.70441 1.7044 1.7044 1.7044 1.70439 1.70439 1.70439 1.70439 1.70439 1.70439 1.70439 1.70439 1.70439 1.7044 1.7044 1.7044 1.70441 1.70441 1.70442 1.70442 1.70442 1.70443 1.70443 1.70443 1.70442 1.70441 1.70439 1.70435 1.70429 1.70419 1.70403 1.70378 1.70339 1.70278 1.70182 1.70032 1.69794 1.69419 1.68827 1.67894 1.66434 1.64178 1.6077 1.55803 1.48916 1.39971 1.29226 1.17365 1.05325 0.940009 0.840133 0.756375 0.688704 0.635448 0.594274 0.562814 0.538959 0.520961 0.507425 0.49727 0.489666 0.483983 0.479744 0.476591 0.474252 0.472526 0.47126 0.47034 0.46968 0.469214 0.468894 0.468685 0.468556 0.46849 0.468468 0.468481 0.468518 0.468573 0.468641 0.468719 0.468802 0.468889 0.468978 0.469068 0.469158 0.469247 0.469334 0.46942 0.469503 0.469584 0.469662 0.469737 0.469809 0.469878 0.469943 0.470006 0.470065 0.470121 0.470173 0.470222 0.470268 0.47031 0.470349 0.470385 0.470417 0.470446 0.470472 0.470495 0.470514 0.47053 0.470543 0.470553 0.47056 0.470564 0.470564 0.470562 0.470557 0.470549 0.470538 0.470525 0.470508 0.470489 0.470468 0.470443 0.470417 0.470388 0.470356 0.470322 0.470286 0.470247 0.470207 0.470164 0.470119 0.470072 0.470023 0.469972 0.46992 0.469865 0.469809 0.469752 0.469693 0.469632 0.46957 0.469506 0.469441 0.469375 0.469308 0.46924 0.469171 0.469101 0.46903 0.468959 0.468887 0.468814 0.468741 0.468667 0.468593 0.468519 0.468445 0.468371 0.468297 0.468223 0.468149 0.468075 0.468002 0.46793 0.467858 0.467786 0.467716 0.467646 0.467577 0.467509 0.467443 0.467377 0.467313 0.46725 0.467189 0.467129 0.467071 0.467014 0.466959 0.466906 0.466855 0.466806 0.466759 0.466714 0.466671 0.466631 0.466592 0.466556 0.466523 0.466492 0.466464 0.466438 0.466415 0.466395 0.466377 0.466363 0.466351 0.466342 0.466335 0.466331 0.46633 0.466331 0.466334 0.466337 0.466342 0.466345 0.459124 0.459123 0.459121 0.459119 0.459119 0.45912 0.459123 0.459129 0.459136 0.459147 0.459159 0.459175 0.459193 0.459213 0.459236 0.459262 0.45929 0.45932 0.459353 0.459388 0.459425 0.459465 0.459506 0.45955 0.459596 0.459644 0.459693 0.459745 0.459798 0.459853 0.459909 0.459967 0.460027 0.460088 0.46015 0.460214 0.460278 0.460344 0.460411 0.460478 0.460547 0.460616 0.460686 0.460756 0.460827 0.460898 0.46097 0.461042 0.461114 0.461186 0.461258 0.46133 0.461402 0.461474 0.461545 0.461616 0.461686 0.461755 0.461824 0.461892 0.46196 0.462026 0.462091 0.462155 0.462219 0.46228 0.462341 0.4624 0.462458 0.462514 0.462568 0.462621 0.462672 0.462722 0.462769 0.462815 0.462858 0.4629 0.462939 0.462977 0.463012 0.463045 0.463075 0.463103 0.463129 0.463152 0.463173 0.463191 0.463206 0.463219 0.463229 0.463236 0.463241 0.463242 0.463241 0.463236 0.463229 0.463219 0.463205 0.463188 0.463169 0.463146 0.46312 0.46309 0.463058 0.463022 0.462983 0.462941 0.462895 0.462846 0.462794 0.462739 0.46268 0.462618 0.462553 0.462486 0.462415 0.462341 0.462265 0.462186 0.462105 0.462022 0.461937 0.461852 0.461766 0.461682 0.461599 0.46152 0.461446 0.461382 0.46133 0.461295 0.461283 0.461304 0.461368 0.461491 0.461693 0.461999 0.462444 0.463076 0.463955 0.465164 0.466811 0.469042 0.472047 0.476083 0.481488 0.488713 0.498349 0.511177 0.52821 0.550751 0.580436 0.61924 0.6694 0.733164 0.812259 0.907035 1.01541 1.13216 1.24923 1.35765 1.4502 1.52336 1.57749 1.6155 1.64119 1.65811 1.66909 1.67615 1.68068 1.68357 1.68543 1.68662 1.68738 1.68788 1.68819 1.6884 1.68853 1.68861 1.68866 1.6887 1.68871 1.68872 1.68873 1.68873 1.68873 1.68872 1.68872 1.68871 1.68871 1.68871 1.6887 1.6887 1.68869 1.68869 1.68869 1.68869 1.68869 1.68869 1.68868 1.68869 1.68869 1.68869 1.68869 1.68869 1.68869 1.6887 1.6887 1.68871 1.68871 1.68871 1.68871 1.68872 1.68871 1.68871 1.6887 1.68868 1.68865 1.68859 1.68851 1.68838 1.68817 1.68785 1.68735 1.68658 1.68538 1.68351 1.68059 1.67603 1.66891 1.65785 1.64079 1.61491 1.57665 1.5222 1.44868 1.3558 1.24714 1.12999 1.01332 0.905147 0.810636 0.731819 0.668312 0.618372 0.579746 0.550202 0.52777 0.51082 0.498056 0.488467 0.481279 0.4759 0.471885 0.468896 0.466678 0.46504 0.463838 0.462965 0.462338 0.461896 0.461593 0.461395 0.461274 0.461212 0.461193 0.461207 0.461244 0.461298 0.461364 0.461439 0.46152 0.461605 0.461691 0.461779 0.461866 0.461952 0.462037 0.46212 0.462201 0.462279 0.462354 0.462427 0.462497 0.462564 0.462628 0.462688 0.462746 0.4628 0.462851 0.462898 0.462943 0.462984 0.463022 0.463057 0.463088 0.463116 0.463141 0.463163 0.463182 0.463198 0.46321 0.46322 0.463227 0.46323 0.463231 0.463229 0.463224 0.463216 0.463206 0.463192 0.463177 0.463158 0.463137 0.463114 0.463088 0.463059 0.463029 0.462996 0.462961 0.462923 0.462884 0.462842 0.462798 0.462753 0.462705 0.462656 0.462605 0.462552 0.462498 0.462442 0.462384 0.462325 0.462265 0.462203 0.46214 0.462076 0.462011 0.461945 0.461878 0.46181 0.461741 0.461672 0.461602 0.461531 0.46146 0.461388 0.461317 0.461245 0.461173 0.461101 0.461029 0.460957 0.460885 0.460814 0.460743 0.460672 0.460603 0.460533 0.460465 0.460397 0.46033 0.460265 0.4602 0.460136 0.460074 0.460013 0.459954 0.459896 0.459839 0.459784 0.459731 0.459679 0.45963 0.459582 0.459536 0.459492 0.459451 0.459411 0.459374 0.459339 0.459307 0.459277 0.459249 0.459224 0.459201 0.459181 0.459164 0.459149 0.459137 0.459127 0.45912 0.459116 0.459114 0.459113 0.459115 0.459117 0.45912 0.459122 0.453677 0.453677 0.453677 0.453676 0.453677 0.45368 0.453684 0.45369 0.453698 0.453709 0.453722 0.453738 0.453755 0.453776 0.453799 0.453824 0.453851 0.453881 0.453913 0.453947 0.453984 0.454022 0.454063 0.454105 0.45415 0.454196 0.454244 0.454294 0.454346 0.454399 0.454454 0.454511 0.454568 0.454628 0.454688 0.45475 0.454812 0.454876 0.454941 0.455007 0.455073 0.45514 0.455208 0.455276 0.455345 0.455415 0.455484 0.455554 0.455624 0.455694 0.455764 0.455834 0.455904 0.455973 0.456042 0.456111 0.456179 0.456247 0.456314 0.45638 0.456445 0.45651 0.456573 0.456636 0.456697 0.456757 0.456816 0.456873 0.456929 0.456984 0.457037 0.457088 0.457138 0.457186 0.457232 0.457276 0.457319 0.457359 0.457398 0.457434 0.457468 0.4575 0.45753 0.457557 0.457582 0.457605 0.457625 0.457642 0.457657 0.45767 0.457679 0.457686 0.45769 0.457692 0.45769 0.457686 0.457679 0.457669 0.457655 0.457639 0.45762 0.457598 0.457572 0.457544 0.457512 0.457477 0.457439 0.457398 0.457354 0.457306 0.457256 0.457202 0.457145 0.457085 0.457022 0.456956 0.456888 0.456816 0.456742 0.456666 0.456587 0.456506 0.456424 0.456342 0.456258 0.456176 0.456096 0.456019 0.455947 0.455884 0.455832 0.455797 0.455783 0.455801 0.455859 0.455974 0.456161 0.456448 0.456866 0.457459 0.458285 0.45942 0.460966 0.463059 0.465876 0.469655 0.474711 0.481458 0.490444 0.502384 0.518209 0.539114 0.566594 0.602471 0.648827 0.707818 0.78125 0.869862 0.972391 1.08477 1.20013 1.31006 1.40696 1.48615 1.54665 1.59039 1.62072 1.64113 1.65462 1.66343 1.66914 1.67285 1.67525 1.6768 1.67781 1.67847 1.6789 1.67918 1.67937 1.67949 1.67956 1.67961 1.67964 1.67966 1.67967 1.67967 1.67967 1.67967 1.67967 1.67967 1.67966 1.67966 1.67965 1.67965 1.67965 1.67964 1.67964 1.67964 1.67964 1.67964 1.67964 1.67964 1.67964 1.67964 1.67964 1.67964 1.67965 1.67965 1.67965 1.67966 1.67966 1.67966 1.67966 1.67966 1.67965 1.67964 1.67962 1.67959 1.67954 1.67947 1.67935 1.67916 1.67888 1.67844 1.67778 1.67676 1.67519 1.67277 1.66904 1.66328 1.6544 1.64081 1.62024 1.58971 1.54569 1.48486 1.40533 1.30815 1.19804 1.08266 0.970397 0.868086 0.779736 0.70657 0.647818 0.601665 0.565953 0.538602 0.517798 0.502049 0.490167 0.481226 0.474512 0.469482 0.465721 0.462919 0.460838 0.459301 0.458172 0.457352 0.456763 0.456349 0.456065 0.45588 0.455768 0.455712 0.455697 0.455712 0.455749 0.455802 0.455867 0.455941 0.45602 0.456102 0.456186 0.456271 0.456355 0.456439 0.456521 0.456602 0.45668 0.456756 0.456829 0.4569 0.456968 0.457033 0.457094 0.457153 0.457209 0.457262 0.457311 0.457357 0.457401 0.457441 0.457477 0.457511 0.457542 0.457569 0.457594 0.457615 0.457633 0.457649 0.457661 0.45767 0.457677 0.457681 0.457681 0.457679 0.457674 0.457667 0.457657 0.457644 0.457629 0.457611 0.45759 0.457567 0.457542 0.457515 0.457485 0.457453 0.457418 0.457382 0.457344 0.457303 0.457261 0.457216 0.45717 0.457122 0.457073 0.457021 0.456968 0.456914 0.456858 0.456801 0.456742 0.456682 0.456621 0.456559 0.456495 0.456431 0.456366 0.4563 0.456233 0.456166 0.456097 0.456029 0.45596 0.45589 0.455821 0.455751 0.455681 0.455611 0.455541 0.455471 0.455402 0.455332 0.455263 0.455195 0.455127 0.45506 0.454993 0.454928 0.454863 0.454799 0.454736 0.454675 0.454614 0.454555 0.454497 0.454441 0.454386 0.454332 0.454281 0.454231 0.454182 0.454136 0.454091 0.454049 0.454008 0.45397 0.453934 0.453899 0.453868 0.453838 0.453811 0.453786 0.453764 0.453744 0.453727 0.453712 0.453699 0.453689 0.453682 0.453676 0.453673 0.453671 0.453671 0.453672 0.453673 0.453674 0.449573 0.449574 0.449574 0.449576 0.449578 0.449581 0.449587 0.449594 0.449603 0.449614 0.449628 0.449643 0.449661 0.449682 0.449704 0.449729 0.449756 0.449785 0.449817 0.44985 0.449886 0.449923 0.449963 0.450004 0.450048 0.450093 0.45014 0.450189 0.450239 0.450291 0.450344 0.450399 0.450455 0.450513 0.450571 0.450631 0.450692 0.450754 0.450817 0.450881 0.450946 0.451011 0.451077 0.451143 0.45121 0.451278 0.451345 0.451413 0.451481 0.451549 0.451617 0.451685 0.451753 0.451821 0.451888 0.451955 0.452021 0.452087 0.452152 0.452217 0.45228 0.452343 0.452405 0.452465 0.452525 0.452583 0.452641 0.452697 0.452751 0.452804 0.452856 0.452906 0.452954 0.453001 0.453046 0.453089 0.45313 0.45317 0.453207 0.453243 0.453276 0.453307 0.453336 0.453362 0.453387 0.453409 0.453428 0.453445 0.45346 0.453472 0.453481 0.453488 0.453492 0.453493 0.453492 0.453488 0.45348 0.453471 0.453458 0.453442 0.453423 0.453401 0.453377 0.453349 0.453318 0.453284 0.453247 0.453207 0.453164 0.453118 0.453068 0.453016 0.452961 0.452903 0.452841 0.452777 0.45271 0.452641 0.452569 0.452495 0.452418 0.45234 0.45226 0.45218 0.452099 0.452019 0.451941 0.451865 0.451795 0.451733 0.451681 0.451645 0.45163 0.451643 0.451695 0.451799 0.451971 0.452237 0.452624 0.453176 0.453944 0.455 0.456437 0.458381 0.460995 0.464499 0.469178 0.475413 0.4837 0.494689 0.509221 0.528376 0.553508 0.58627 0.628579 0.682482 0.749834 0.831725 0.927674 1.03482 1.14758 1.2584 1.35955 1.4453 1.51319 1.56391 1.60008 1.62503 1.64184 1.65301 1.66036 1.66518 1.66834 1.67041 1.67177 1.67267 1.67326 1.67365 1.67391 1.67408 1.67419 1.67427 1.67431 1.67434 1.67436 1.67437 1.67438 1.67438 1.67438 1.67438 1.67437 1.67437 1.67437 1.67437 1.67436 1.67436 1.67436 1.67436 1.67436 1.67435 1.67435 1.67435 1.67435 1.67436 1.67436 1.67436 1.67436 1.67436 1.67437 1.67437 1.67437 1.67437 1.67437 1.67436 1.67435 1.67433 1.6743 1.67425 1.67417 1.67406 1.67389 1.67363 1.67323 1.67264 1.67173 1.67036 1.66827 1.66509 1.66023 1.65282 1.64157 1.62464 1.59952 1.56311 1.5121 1.44388 1.35782 1.25643 1.14551 1.03278 0.92579 0.830071 0.748438 0.681336 0.627654 0.58553 0.552918 0.527904 0.508839 0.494377 0.483441 0.475195 0.468991 0.464335 0.460849 0.458248 0.456314 0.454885 0.453835 0.453072 0.452525 0.452141 0.451878 0.451708 0.451607 0.451557 0.451546 0.451563 0.451601 0.451654 0.451718 0.45179 0.451867 0.451947 0.452029 0.452111 0.452193 0.452275 0.452355 0.452433 0.452509 0.452583 0.452654 0.452723 0.452789 0.452852 0.452912 0.452969 0.453023 0.453074 0.453122 0.453168 0.45321 0.453249 0.453284 0.453317 0.453347 0.453374 0.453398 0.453419 0.453436 0.453451 0.453463 0.453473 0.453479 0.453483 0.453483 0.453481 0.453477 0.453469 0.45346 0.453447 0.453432 0.453415 0.453395 0.453373 0.453348 0.453321 0.453292 0.453261 0.453228 0.453192 0.453155 0.453115 0.453074 0.453031 0.452986 0.452939 0.452891 0.452841 0.45279 0.452736 0.452682 0.452626 0.452569 0.452511 0.452451 0.452391 0.452329 0.452266 0.452203 0.452139 0.452074 0.452008 0.451942 0.451875 0.451808 0.45174 0.451673 0.451604 0.451536 0.451468 0.4514 0.451332 0.451265 0.451197 0.45113 0.451064 0.450998 0.450933 0.450868 0.450804 0.450741 0.450679 0.450618 0.450558 0.450499 0.450442 0.450385 0.45033 0.450277 0.450225 0.450175 0.450126 0.450079 0.450034 0.449991 0.449949 0.44991 0.449872 0.449837 0.449803 0.449772 0.449743 0.449716 0.449692 0.44967 0.44965 0.449632 0.449617 0.449604 0.449594 0.449585 0.449579 0.449574 0.449571 0.44957 0.449569 0.449569 0.449568 0.446483 0.446484 0.446485 0.446488 0.446492 0.446496 0.446503 0.446511 0.446521 0.446533 0.446547 0.446563 0.446581 0.446601 0.446624 0.446648 0.446675 0.446704 0.446734 0.446767 0.446802 0.446839 0.446878 0.446918 0.446961 0.447005 0.447051 0.447098 0.447147 0.447198 0.44725 0.447303 0.447358 0.447414 0.447471 0.447529 0.447589 0.447649 0.44771 0.447772 0.447835 0.447899 0.447963 0.448028 0.448093 0.448158 0.448224 0.44829 0.448357 0.448423 0.448489 0.448556 0.448622 0.448688 0.448753 0.448818 0.448883 0.448947 0.449011 0.449073 0.449135 0.449196 0.449257 0.449316 0.449374 0.449431 0.449487 0.449541 0.449594 0.449646 0.449697 0.449745 0.449793 0.449838 0.449882 0.449924 0.449964 0.450003 0.450039 0.450074 0.450106 0.450136 0.450164 0.45019 0.450214 0.450235 0.450254 0.450271 0.450285 0.450297 0.450306 0.450312 0.450316 0.450318 0.450316 0.450312 0.450305 0.450295 0.450283 0.450267 0.450249 0.450228 0.450203 0.450176 0.450146 0.450113 0.450077 0.450038 0.449996 0.449951 0.449903 0.449852 0.449798 0.449741 0.449682 0.449619 0.449554 0.449487 0.449417 0.449344 0.44927 0.449194 0.449116 0.449038 0.448959 0.448881 0.448804 0.448731 0.448662 0.4486 0.448548 0.448511 0.448493 0.448502 0.448546 0.448639 0.448795 0.449038 0.449394 0.449902 0.450609 0.451583 0.452907 0.454697 0.457101 0.460319 0.464609 0.470315 0.477882 0.487895 0.501104 0.518474 0.541215 0.570813 0.609011 0.657728 0.718821 0.793651 0.882415 0.983373 1.09232 1.20278 1.30732 1.39943 1.47521 1.53386 1.57703 1.60761 1.62867 1.64291 1.65244 1.65877 1.66296 1.66574 1.66758 1.66881 1.66963 1.67017 1.67054 1.67079 1.67095 1.67106 1.67113 1.67118 1.67122 1.67124 1.67125 1.67126 1.67126 1.67126 1.67126 1.67126 1.67125 1.67125 1.67125 1.67125 1.67125 1.67125 1.67124 1.67124 1.67124 1.67124 1.67124 1.67124 1.67125 1.67125 1.67125 1.67125 1.67125 1.67125 1.67125 1.67124 1.67123 1.67122 1.6712 1.67117 1.67112 1.67104 1.67093 1.67076 1.67052 1.67015 1.6696 1.66877 1.66754 1.66568 1.66288 1.65865 1.65228 1.64268 1.62833 1.60712 1.57635 1.53292 1.47396 1.39788 1.3055 1.20079 1.09028 0.981428 0.880654 0.792128 0.717547 0.656686 0.608171 0.570139 0.540676 0.518041 0.500752 0.487606 0.477641 0.470111 0.464433 0.460164 0.456962 0.45457 0.452789 0.451473 0.450505 0.449802 0.449298 0.448946 0.448706 0.448551 0.448461 0.448418 0.448411 0.448431 0.44847 0.448523 0.448587 0.448658 0.448733 0.448811 0.448891 0.448971 0.449051 0.449131 0.449208 0.449284 0.449358 0.44943 0.4495 0.449566 0.449631 0.449692 0.449751 0.449806 0.449859 0.449909 0.449956 0.45 0.450041 0.450079 0.450114 0.450146 0.450175 0.450201 0.450225 0.450245 0.450262 0.450277 0.450289 0.450298 0.450304 0.450308 0.450308 0.450307 0.450302 0.450295 0.450285 0.450273 0.450259 0.450242 0.450222 0.450201 0.450177 0.450151 0.450122 0.450092 0.450059 0.450025 0.449988 0.44995 0.44991 0.449868 0.449824 0.449778 0.449731 0.449682 0.449632 0.44958 0.449527 0.449473 0.449417 0.44936 0.449302 0.449243 0.449183 0.449122 0.44906 0.448997 0.448934 0.44887 0.448805 0.44874 0.448675 0.448609 0.448543 0.448477 0.448411 0.448344 0.448278 0.448212 0.448146 0.44808 0.448015 0.44795 0.447886 0.447822 0.447759 0.447697 0.447636 0.447575 0.447516 0.447458 0.4474 0.447344 0.447289 0.447236 0.447184 0.447133 0.447084 0.447037 0.446991 0.446947 0.446905 0.446864 0.446825 0.446789 0.446754 0.446721 0.44669 0.446662 0.446635 0.446611 0.446589 0.446569 0.446551 0.446536 0.446522 0.446511 0.446502 0.446494 0.446488 0.446484 0.446481 0.446479 0.446478 0.446477 0.444158 0.444159 0.444161 0.444165 0.44417 0.444176 0.444183 0.444192 0.444203 0.444215 0.44423 0.444246 0.444265 0.444285 0.444308 0.444332 0.444359 0.444387 0.444417 0.44445 0.444484 0.44452 0.444558 0.444598 0.444639 0.444682 0.444727 0.444773 0.444821 0.444871 0.444921 0.444973 0.445027 0.445081 0.445137 0.445194 0.445252 0.445311 0.445371 0.445431 0.445493 0.445555 0.445617 0.44568 0.445744 0.445808 0.445872 0.445937 0.446001 0.446066 0.446131 0.446195 0.44626 0.446324 0.446388 0.446452 0.446515 0.446577 0.446639 0.446701 0.446761 0.446821 0.44688 0.446937 0.446994 0.44705 0.447104 0.447158 0.44721 0.44726 0.447309 0.447357 0.447403 0.447448 0.44749 0.447532 0.447571 0.447608 0.447644 0.447678 0.447709 0.447739 0.447766 0.447792 0.447815 0.447836 0.447854 0.44787 0.447884 0.447895 0.447904 0.447911 0.447914 0.447916 0.447914 0.44791 0.447903 0.447894 0.447881 0.447866 0.447848 0.447827 0.447803 0.447777 0.447747 0.447715 0.44768 0.447642 0.447601 0.447557 0.44751 0.44746 0.447407 0.447352 0.447294 0.447233 0.44717 0.447104 0.447035 0.446965 0.446892 0.446818 0.446742 0.446666 0.446589 0.446513 0.446437 0.446365 0.446297 0.446236 0.446183 0.446144 0.446123 0.446127 0.446164 0.446245 0.446385 0.446605 0.446928 0.447391 0.448037 0.448927 0.450136 0.451771 0.453963 0.456893 0.460793 0.465969 0.472819 0.481859 0.493757 0.509364 0.52975 0.556237 0.590395 0.633992 0.688841 0.756475 0.837625 0.931534 1.03532 1.14381 1.25025 1.3478 1.43136 1.49856 1.54976 1.5871 1.61347 1.63167 1.64404 1.65237 1.65796 1.66171 1.66422 1.6659 1.66704 1.6678 1.66832 1.66867 1.66891 1.66908 1.66919 1.66927 1.66932 1.66935 1.66937 1.66939 1.6694 1.6694 1.66941 1.66941 1.66941 1.66941 1.66941 1.6694 1.6694 1.6694 1.6694 1.6694 1.6694 1.6694 1.6694 1.6694 1.6694 1.6694 1.6694 1.6694 1.6694 1.66939 1.66939 1.66938 1.66936 1.66934 1.6693 1.66925 1.66917 1.66906 1.66889 1.66865 1.66829 1.66777 1.667 1.66586 1.66416 1.66163 1.65786 1.65222 1.64383 1.63137 1.61305 1.58651 1.54894 1.49746 1.42996 1.34612 1.24835 1.14182 1.03335 0.929701 0.836 0.755088 0.687689 0.633053 0.589637 0.555629 0.529261 0.508968 0.493434 0.481592 0.472595 0.465778 0.460627 0.456746 0.453831 0.451649 0.450024 0.448821 0.447937 0.447295 0.446836 0.446515 0.446298 0.44616 0.446081 0.446046 0.446044 0.446067 0.446107 0.446161 0.446224 0.446294 0.446368 0.446445 0.446523 0.446601 0.446679 0.446757 0.446832 0.446907 0.446979 0.447049 0.447116 0.447182 0.447244 0.447304 0.447361 0.447416 0.447467 0.447516 0.447562 0.447605 0.447645 0.447682 0.447716 0.447748 0.447776 0.447802 0.447825 0.447845 0.447862 0.447876 0.447888 0.447896 0.447903 0.447906 0.447907 0.447905 0.447901 0.447894 0.447885 0.447873 0.447859 0.447842 0.447823 0.447802 0.447779 0.447753 0.447726 0.447696 0.447664 0.44763 0.447595 0.447557 0.447518 0.447477 0.447434 0.447389 0.447343 0.447296 0.447247 0.447196 0.447144 0.447091 0.447036 0.446981 0.446924 0.446866 0.446808 0.446748 0.446688 0.446627 0.446565 0.446502 0.446439 0.446376 0.446312 0.446247 0.446183 0.446118 0.446054 0.445989 0.445924 0.44586 0.445795 0.445731 0.445668 0.445604 0.445542 0.44548 0.445418 0.445358 0.445298 0.445239 0.445181 0.445124 0.445068 0.445013 0.44496 0.444908 0.444857 0.444808 0.44476 0.444713 0.444669 0.444625 0.444584 0.444544 0.444506 0.44447 0.444436 0.444404 0.444374 0.444345 0.444319 0.444295 0.444273 0.444253 0.444235 0.444219 0.444205 0.444193 0.444182 0.444174 0.444167 0.444161 0.444157 0.444154 0.444152 0.444151 0.442409 0.442411 0.442414 0.442419 0.442424 0.442431 0.44244 0.44245 0.442461 0.442475 0.44249 0.442506 0.442525 0.442546 0.442568 0.442593 0.442619 0.442647 0.442677 0.442709 0.442743 0.442778 0.442816 0.442854 0.442895 0.442937 0.442981 0.443026 0.443073 0.443121 0.443171 0.443222 0.443274 0.443328 0.443382 0.443438 0.443494 0.443552 0.44361 0.443669 0.443729 0.44379 0.443851 0.443913 0.443975 0.444037 0.4441 0.444163 0.444226 0.444289 0.444353 0.444416 0.444479 0.444542 0.444604 0.444666 0.444728 0.444789 0.44485 0.44491 0.444969 0.445027 0.445085 0.445141 0.445197 0.445251 0.445305 0.445357 0.445408 0.445457 0.445505 0.445552 0.445597 0.44564 0.445682 0.445723 0.445761 0.445798 0.445833 0.445865 0.445896 0.445925 0.445952 0.445977 0.445999 0.44602 0.446038 0.446054 0.446067 0.446078 0.446087 0.446093 0.446097 0.446098 0.446096 0.446092 0.446085 0.446076 0.446064 0.446049 0.446031 0.446011 0.445988 0.445962 0.445933 0.445901 0.445866 0.445829 0.445789 0.445746 0.4457 0.445651 0.4456 0.445546 0.445489 0.44543 0.445367 0.445303 0.445236 0.445168 0.445097 0.445024 0.44495 0.444875 0.4448 0.444725 0.444651 0.44458 0.444512 0.444451 0.444398 0.444357 0.444333 0.444331 0.44436 0.44443 0.444553 0.444749 0.44504 0.445458 0.446043 0.446849 0.447945 0.449425 0.451409 0.454056 0.457573 0.46223 0.46838 0.476477 0.487105 0.501012 0.519137 0.542641 0.572923 0.611591 0.660365 0.720858 0.794176 0.880353 0.97771 1.08245 1.18885 1.29028 1.38083 1.45668 1.51669 1.56192 1.59476 1.61795 1.63401 1.645 1.65247 1.65753 1.66096 1.66328 1.66486 1.66594 1.66667 1.66718 1.66753 1.66777 1.66794 1.66805 1.66813 1.66819 1.66823 1.66826 1.66827 1.66829 1.66829 1.6683 1.6683 1.6683 1.6683 1.6683 1.6683 1.6683 1.6683 1.6683 1.6683 1.6683 1.6683 1.6683 1.6683 1.6683 1.66829 1.66829 1.66828 1.66828 1.66826 1.66824 1.66822 1.66818 1.66812 1.66804 1.66792 1.66775 1.66751 1.66715 1.66664 1.6659 1.66481 1.66322 1.66088 1.65743 1.65233 1.64481 1.63374 1.61757 1.59423 1.56119 1.51571 1.45542 1.37928 1.2885 1.18692 1.08049 0.975837 0.878651 0.792693 0.719607 0.659333 0.610751 0.572245 0.542095 0.518695 0.500654 0.486811 0.476231 0.468173 0.462052 0.457417 0.453917 0.451283 0.44931 0.447837 0.446747 0.445946 0.445365 0.444951 0.444662 0.444469 0.444347 0.444279 0.444253 0.444256 0.444282 0.444324 0.444379 0.444441 0.444511 0.444583 0.444659 0.444735 0.444812 0.444888 0.444964 0.445038 0.445111 0.445181 0.44525 0.445316 0.445379 0.44544 0.445499 0.445555 0.445608 0.445659 0.445706 0.445751 0.445793 0.445832 0.445869 0.445902 0.445933 0.445961 0.445986 0.446009 0.446028 0.446045 0.446059 0.446071 0.446079 0.446085 0.446089 0.44609 0.446088 0.446084 0.446077 0.446068 0.446057 0.446043 0.446027 0.446008 0.445988 0.445965 0.44594 0.445913 0.445884 0.445853 0.44582 0.445785 0.445748 0.445709 0.445669 0.445627 0.445584 0.445539 0.445492 0.445444 0.445394 0.445344 0.445292 0.445238 0.445184 0.445129 0.445072 0.445015 0.444956 0.444897 0.444837 0.444777 0.444716 0.444654 0.444592 0.44453 0.444467 0.444404 0.44434 0.444277 0.444214 0.444151 0.444088 0.444025 0.443962 0.4439 0.443838 0.443777 0.443716 0.443656 0.443597 0.443539 0.443481 0.443424 0.443369 0.443314 0.443261 0.443209 0.443158 0.443108 0.44306 0.443013 0.442967 0.442923 0.442881 0.442841 0.442802 0.442764 0.442729 0.442695 0.442664 0.442634 0.442606 0.44258 0.442555 0.442533 0.442513 0.442495 0.442478 0.442463 0.442451 0.44244 0.44243 0.442422 0.442415 0.44241 0.442406 0.442403 0.442401 0.441096 0.441098 0.441102 0.441107 0.441114 0.441122 0.441131 0.441142 0.441154 0.441168 0.441184 0.441201 0.44122 0.441241 0.441263 0.441288 0.441314 0.441342 0.441372 0.44140