# vtk DataFile Version 3.0
Immiscible displacement
ASCII
DATASET RECTILINEAR_GRID
DIMENSIONS 200 200 1
X_COORDINATES 200 double
1 2 3 4 5 6 7 8 9 10 11 12 13 14 15 16 17 18 19 20 21 22 23 24 25 26 27 28 29 30 31 32 33 34 35 36 37 38 39 40 41 42 43 44 45 46 47 48 49 50 51 52 53 54 55 56 57 58 59 60 61 62 63 64 65 66 67 68 69 70 71 72 73 74 75 76 77 78 79 80 81 82 83 84 85 86 87 88 89 90 91 92 93 94 95 96 97 98 99 100 101 102 103 104 105 106 107 108 109 110 111 112 113 114 115 116 117 118 119 120 121 122 123 124 125 126 127 128 129 130 131 132 133 134 135 136 137 138 139 140 141 142 143 144 145 146 147 148 149 150 151 152 153 154 155 156 157 158 159 160 161 162 163 164 165 166 167 168 169 170 171 172 173 174 175 176 177 178 179 180 181 182 183 184 185 186 187 188 189 190 191 192 193 194 195 196 197 198 199 200 
Y_COORDINATES 200 double
1 2 3 4 5 6 7 8 9 10 11 12 13 14 15 16 17 18 19 20 21 22 23 24 25 26 27 28 29 30 31 32 33 34 35 36 37 38 39 40 41 42 43 44 45 46 47 48 49 50 51 52 53 54 55 56 57 58 59 60 61 62 63 64 65 66 67 68 69 70 71 72 73 74 75 76 77 78 79 80 81 82 83 84 85 86 87 88 89 90 91 92 93 94 95 96 97 98 99 100 101 102 103 104 105 106 107 108 109 110 111 112 113 114 115 116 117 118 119 120 121 122 123 124 125 126 127 128 129 130 131 132 133 134 135 136 137 138 139 140 141 142 143 144 145 146 147 148 149 150 151 152 153 154 155 156 157 158 159 160 161 162 163 164 165 166 167 168 169 170 171 172 173 174 175 176 177 178 179 180 181 182 183 184 185 186 187 188 189 190 191 192 193 194 195 196 197 198 199 200 
Z_COORDINATES 1 double
0
POINT_DATA 40000
SCALARS rho double 1
LOOKUP_TABLE default
0.440429 0.440889 0.441507 0.442151 0.442758 0.443303 0.443775 0.444176 0.444509 0.44478 0.444995 0.44516 0.445281 0.445364 0.445417 0.445449 0.445471 0.445501 0.445558 0.445675 0.445889 0.446253 0.446835 0.447728 0.449048 0.450955 0.453651 0.457409 0.462582 0.469641 0.479199 0.492067 0.50929 0.532224 0.56256 0.602356 0.653927 0.719598 0.801083 0.89859 1.00963 1.12837 1.24605 1.35334 1.44307 1.51231 1.56209 1.59589 1.61777 1.6314 1.6395 1.64405 1.64628 1.64705 1.64684 1.64599 1.64467 1.64304 1.64111 1.63898 1.63664 1.63413 1.63143 1.62858 1.62557 1.62243 1.61914 1.61575 1.61224 1.60867 1.60502 1.60136 1.59766 1.59399 1.59035 1.58679 1.58331 1.57995 1.57671 1.57363 1.5707 1.56795 1.56537 1.56299 1.56078 1.55876 1.55691 1.55525 1.55375 1.55242 1.55123 1.5502 1.5493 1.54854 1.54791 1.5474 1.547 1.54673 1.54656 1.54651 1.54656 1.54673 1.547 1.5474 1.54791 1.54854 1.5493 1.5502 1.55123 1.55242 1.55375 1.55525 1.55691 1.55876 1.56078 1.56299 1.56537 1.56795 1.5707 1.57363 1.57671 1.57995 1.58331 1.58679 1.59035 1.59399 1.59766 1.60136 1.60502 1.60867 1.61224 1.61575 1.61914 1.62243 1.62557 1.62858 1.63143 1.63413 1.63664 1.63898 1.64111 1.64304 1.64467 1.64599 1.64684 1.64705 1.64628 1.64405 1.6395 1.6314 1.61777 1.59589 1.56209 1.51231 1.44307 1.35333 1.24605 1.12836 1.00963 0.898584 0.801077 0.719591 0.653923 0.602354 0.562561 0.532231 0.509303 0.492087 0.479228 0.46968 0.462631 0.457468 0.453719 0.451031 0.449128 0.447807 0.446908 0.446311 0.445923 0.445674 0.445511 0.445393 0.445291 0.445183 0.445053 0.444893 0.444694 0.444453 0.444167 0.443836 0.443458 0.44303 0.442552 0.442021 0.441436 0.4408 0.440122 0.439429 0.43878 0.438307 0.441023 0.441366 0.441881 0.442447 0.442995 0.443494 0.443929 0.444298 0.444603 0.444848 0.445039 0.445181 0.445281 0.445345 0.445379 0.445395 0.445402 0.445418 0.445464 0.445571 0.445776 0.446133 0.446707 0.447593 0.448905 0.450802 0.453484 0.457225 0.462373 0.469401 0.478912 0.49172 0.50886 0.531688 0.56188 0.601498 0.652844 0.718255 0.799454 0.896695 1.00754 1.12621 1.244 1.35155 1.44163 1.51124 1.56133 1.59538 1.61743 1.63119 1.63936 1.64397 1.64623 1.64704 1.64683 1.64602 1.64471 1.6431 1.64118 1.63909 1.63675 1.63428 1.6316 1.62879 1.62579 1.6227 1.61943 1.61608 1.61259 1.60906 1.60543 1.6018 1.59811 1.59448 1.59084 1.58729 1.5838 1.58045 1.57719 1.5741 1.57115 1.56839 1.56577 1.56337 1.56112 1.55908 1.55719 1.5555 1.55396 1.5526 1.55138 1.55033 1.5494 1.54862 1.54796 1.54745 1.54703 1.54675 1.54657 1.54652 1.54657 1.54675 1.54703 1.54745 1.54796 1.54862 1.5494 1.55033 1.55138 1.5526 1.55396 1.5555 1.55719 1.55908 1.56112 1.56337 1.56577 1.56839 1.57115 1.5741 1.57719 1.58045 1.5838 1.58729 1.59084 1.59448 1.59811 1.6018 1.60543 1.60906 1.61259 1.61608 1.61943 1.6227 1.62579 1.62879 1.6316 1.63428 1.63675 1.63909 1.64118 1.6431 1.64471 1.64602 1.64683 1.64704 1.64623 1.64397 1.63936 1.63119 1.61743 1.59538 1.56133 1.51124 1.44163 1.35155 1.244 1.12621 1.00753 0.896689 0.799447 0.718249 0.65284 0.601497 0.561883 0.531695 0.508874 0.491741 0.478942 0.46944 0.462423 0.457285 0.453553 0.450877 0.448983 0.447669 0.446776 0.446184 0.445803 0.445561 0.445406 0.445298 0.445208 0.445113 0.445 0.444856 0.444677 0.444456 0.444193 0.443884 0.44353 0.443129 0.442679 0.44218 0.441632 0.441041 0.440421 0.439804 0.439258 0.4389 0.44191 0.442148 0.442535 0.442983 0.443434 0.443851 0.444218 0.444527 0.44478 0.444977 0.445125 0.445226 0.445289 0.445316 0.445319 0.445304 0.445285 0.445277 0.445303 0.445391 0.445579 0.445921 0.446481 0.447352 0.448647 0.450523 0.453179 0.456885 0.461986 0.468949 0.478374 0.491065 0.508049 0.53067 0.560593 0.599865 0.650783 0.715689 0.796339 0.893055 1.0035 1.12204 1.24001 1.34805 1.43881 1.50913 1.55985 1.59439 1.61678 1.63077 1.63911 1.64382 1.64615 1.64701 1.64685 1.64607 1.6448 1.64322 1.64134 1.63928 1.63699 1.63456 1.63192 1.62916 1.62622 1.62317 1.61996 1.61667 1.61323 1.60975 1.60617 1.60258 1.59893 1.59532 1.59171 1.58818 1.58469 1.58134 1.57807 1.57496 1.57198 1.56918 1.56652 1.56407 1.56177 1.55968 1.55774 1.55599 1.5544 1.55298 1.55171 1.55061 1.54964 1.54883 1.54814 1.54759 1.54716 1.54687 1.54668 1.54663 1.54668 1.54687 1.54716 1.54759 1.54814 1.54883 1.54964 1.55061 1.55171 1.55298 1.5544 1.55599 1.55774 1.55968 1.56177 1.56407 1.56652 1.56918 1.57198 1.57496 1.57807 1.58134 1.58469 1.58818 1.59171 1.59532 1.59893 1.60258 1.60617 1.60975 1.61323 1.61667 1.61996 1.62317 1.62622 1.62916 1.63192 1.63456 1.63699 1.63928 1.64134 1.64322 1.6448 1.64607 1.64685 1.64701 1.64615 1.64382 1.63911 1.63078 1.61679 1.59439 1.55985 1.50913 1.43881 1.34805 1.24001 1.12203 1.0035 0.893048 0.796333 0.715684 0.65078 0.599865 0.560597 0.530679 0.508065 0.491088 0.478406 0.46899 0.462037 0.456946 0.453248 0.450597 0.448722 0.447423 0.446543 0.445963 0.445594 0.445366 0.445227 0.445137 0.445068 0.444997 0.444912 0.444797 0.444652 0.444466 0.444243 0.443975 0.443667 0.443312 0.442916 0.442475 0.441995 0.441483 0.44096 0.440457 0.440037 0.439784 0.442942 0.443097 0.443364 0.443687 0.444023 0.444337 0.444615 0.444845 0.445028 0.445159 0.445248 0.445294 0.445306 0.445286 0.445246 0.445191 0.445137 0.445097 0.445094 0.445156 0.445322 0.445641 0.446181 0.447029 0.448299 0.450144 0.452761 0.456415 0.461447 0.468317 0.477617 0.49014 0.506901 0.529226 0.558762 0.597539 0.647841 0.712018 0.791868 0.887811 0.997669 1.11596 1.23418 1.3429 1.43463 1.50599 1.55763 1.5929 1.61582 1.63017 1.63875 1.64362 1.64606 1.647 1.6469 1.64617 1.64494 1.64341 1.64158 1.63957 1.63733 1.63495 1.63237 1.62968 1.6268 1.62383 1.62068 1.61746 1.6141 1.61068 1.60716 1.60363 1.60003 1.59647 1.59289 1.58938 1.58591 1.58255 1.57927 1.57614 1.57313 1.57029 1.56758 1.56507 1.56271 1.56055 1.55854 1.55673 1.55507 1.55359 1.55226 1.5511 1.55008 1.54922 1.54848 1.5479 1.54744 1.54713 1.54693 1.54687 1.54693 1.54713 1.54744 1.5479 1.54848 1.54922 1.55008 1.5511 1.55226 1.55359 1.55507 1.55673 1.55854 1.56055 1.56271 1.56507 1.56758 1.57029 1.57313 1.57614 1.57927 1.58255 1.58591 1.58938 1.59289 1.59647 1.60003 1.60363 1.60716 1.61068 1.6141 1.61746 1.62068 1.62383 1.6268 1.62968 1.63237 1.63495 1.63733 1.63957 1.64158 1.64341 1.64494 1.64617 1.6469 1.647 1.64606 1.64362 1.63875 1.63017 1.61582 1.5929 1.55763 1.50599 1.43463 1.3429 1.23417 1.11596 0.997663 0.887805 0.791862 0.712014 0.64784 0.597541 0.558768 0.529237 0.506919 0.490166 0.477651 0.46836 0.4615 0.456476 0.452829 0.450216 0.448371 0.447094 0.446234 0.445672 0.445322 0.445113 0.444997 0.444931 0.444891 0.444851 0.444802 0.444728 0.444627 0.444489 0.444317 0.444105 0.443856 0.443566 0.443241 0.442877 0.442486 0.442073 0.441663 0.441282 0.44098 0.440809 0.444033 0.444123 0.444286 0.444492 0.444711 0.444915 0.445093 0.445231 0.44533 0.445385 0.445403 0.445383 0.445335 0.445259 0.445168 0.445066 0.44497 0.444891 0.444854 0.444884 0.445022 0.445313 0.445826 0.446644 0.447881 0.449685 0.452251 0.455837 0.46078 0.46753 0.476671 0.488981 0.505457 0.527405 0.556449 0.594594 0.644108 0.707347 0.786161 0.881092 0.990157 1.1081 1.22657 1.33615 1.42912 1.50182 1.55468 1.59091 1.61454 1.62937 1.63827 1.64336 1.64595 1.64699 1.64697 1.6463 1.64513 1.64366 1.64188 1.63993 1.63775 1.63544 1.63294 1.63032 1.62752 1.62463 1.62156 1.61842 1.61514 1.61181 1.60837 1.6049 1.60137 1.59786 1.59432 1.59084 1.58739 1.58404 1.58076 1.57761 1.57456 1.57168 1.56893 1.56636 1.56393 1.5617 1.55961 1.55772 1.55599 1.55444 1.55303 1.55181 1.55073 1.54981 1.54903 1.54841 1.54792 1.54759 1.54737 1.54731 1.54737 1.54759 1.54792 1.54841 1.54903 1.54981 1.55073 1.55181 1.55303 1.55444 1.55599 1.55772 1.55961 1.5617 1.56393 1.56636 1.56893 1.57168 1.57456 1.57761 1.58076 1.58404 1.58739 1.59084 1.59432 1.59786 1.60137 1.6049 1.60837 1.61181 1.61514 1.61842 1.62156 1.62463 1.62752 1.63032 1.63294 1.63544 1.63775 1.63993 1.64188 1.64366 1.64513 1.6463 1.64697 1.64699 1.64595 1.64336 1.63827 1.62937 1.61454 1.59091 1.55468 1.50182 1.42911 1.33614 1.22657 1.1081 0.990151 0.881086 0.786156 0.707343 0.644107 0.594596 0.556457 0.527418 0.505477 0.489009 0.476708 0.467576 0.460835 0.455899 0.452319 0.449755 0.447949 0.446703 0.44587 0.445331 0.445005 0.44482 0.444732 0.444695 0.44469 0.444688 0.444682 0.444654 0.444605 0.444523 0.444413 0.444265 0.444088 0.443873 0.44363 0.443356 0.443064 0.442758 0.442462 0.442197 0.441995 0.441887 0.445128 0.445167 0.445244 0.445344 0.445452 0.445547 0.445621 0.445662 0.445671 0.445642 0.445583 0.44549 0.445376 0.445238 0.44509 0.444935 0.444792 0.44467 0.444595 0.444589 0.444693 0.444952 0.445432 0.446215 0.447411 0.449165 0.451668 0.455173 0.460008 0.466615 0.475564 0.487618 0.503755 0.525253 0.553708 0.591096 0.639664 0.701772 0.779328 0.873013 0.981076 1.09854 1.21725 1.3278 1.42226 1.4966 1.55096 1.5884 1.61291 1.62836 1.63767 1.64304 1.64581 1.64698 1.64706 1.64647 1.64537 1.64396 1.64225 1.64037 1.63826 1.63603 1.6336 1.63107 1.62835 1.62555 1.62258 1.61953 1.61634 1.6131 1.60974 1.60636 1.6029 1.59945 1.59597 1.59253 1.58911 1.58577 1.58249 1.57933 1.57626 1.57334 1.57054 1.56791 1.56542 1.56311 1.56096 1.55899 1.55717 1.55554 1.55406 1.55277 1.55162 1.55065 1.54982 1.54916 1.54863 1.54827 1.54805 1.54798 1.54805 1.54827 1.54863 1.54916 1.54982 1.55065 1.55162 1.55277 1.55406 1.55554 1.55717 1.55899 1.56096 1.56311 1.56542 1.56791 1.57054 1.57334 1.57626 1.57933 1.58249 1.58577 1.58911 1.59253 1.59597 1.59945 1.6029 1.60636 1.60974 1.6131 1.61634 1.61953 1.62258 1.62555 1.62835 1.63107 1.6336 1.63603 1.63826 1.64037 1.64225 1.64396 1.64537 1.64647 1.64706 1.64698 1.64581 1.64304 1.63767 1.62836 1.61291 1.5884 1.55096 1.4966 1.42225 1.3278 1.21725 1.09854 0.98107 0.873007 0.779324 0.701769 0.639665 0.5911 0.553718 0.525269 0.503778 0.48765 0.475604 0.466663 0.460065 0.455236 0.451736 0.449233 0.447474 0.446267 0.445466 0.444957 0.444659 0.444503 0.444446 0.444443 0.444476 0.444516 0.444558 0.444581 0.44459 0.444569 0.444526 0.444449 0.444349 0.444217 0.444063 0.443884 0.443693 0.443493 0.443305 0.443142 0.443025 0.442967 0.446194 0.446191 0.446195 0.446205 0.446211 0.446203 0.446176 0.446119 0.446036 0.44592 0.44578 0.445611 0.445426 0.445222 0.445015 0.444804 0.444611 0.444442 0.444325 0.44428 0.444348 0.44457 0.445013 0.445754 0.446903 0.448599 0.45103 0.454439 0.459151 0.465592 0.474322 0.486083 0.501829 0.522811 0.550591 0.587108 0.634585 0.695382 0.771468 0.863677 0.97052 1.08735 1.20626 1.31788 1.41402 1.49029 1.54644 1.58532 1.61092 1.62712 1.63694 1.64264 1.64564 1.64697 1.64717 1.64667 1.64565 1.64431 1.64268 1.64087 1.63884 1.63669 1.63435 1.6319 1.62929 1.62658 1.62371 1.62076 1.61768 1.61453 1.61127 1.60797 1.6046 1.60122 1.59781 1.59442 1.59104 1.58773 1.58446 1.58129 1.5782 1.57525 1.57241 1.56973 1.56717 1.5648 1.56256 1.56052 1.55862 1.55692 1.55536 1.554 1.55278 1.55175 1.55087 1.55016 1.5496 1.54922 1.54897 1.5489 1.54897 1.54922 1.5496 1.55016 1.55087 1.55175 1.55278 1.554 1.55536 1.55692 1.55862 1.56052 1.56256 1.5648 1.56717 1.56973 1.57241 1.57525 1.5782 1.58129 1.58446 1.58773 1.59104 1.59442 1.59781 1.60122 1.6046 1.60797 1.61127 1.61453 1.61768 1.62076 1.62371 1.62658 1.62929 1.6319 1.63435 1.63669 1.63884 1.64087 1.64268 1.64431 1.64565 1.64667 1.64717 1.64697 1.64564 1.64264 1.63694 1.62712 1.61092 1.58532 1.54644 1.49029 1.41402 1.31787 1.20625 1.08734 0.970514 0.863671 0.771464 0.69538 0.634587 0.587114 0.550603 0.52283 0.501855 0.486116 0.474365 0.465643 0.459209 0.454503 0.451097 0.448665 0.446962 0.445799 0.445036 0.444561 0.444296 0.444172 0.444149 0.444184 0.444258 0.444343 0.444434 0.444512 0.44458 0.444624 0.444651 0.44465 0.44463 0.444583 0.444519 0.444435 0.444342 0.444243 0.444152 0.444077 0.44403 0.444012 0.447207 0.44717 0.447115 0.447045 0.446962 0.446859 0.446736 0.446585 0.446411 0.446208 0.445986 0.445741 0.445484 0.445213 0.444944 0.444676 0.444431 0.444214 0.444053 0.443966 0.443994 0.444177 0.444578 0.445273 0.446369 0.448001 0.450349 0.453653 0.458225 0.464482 0.472967 0.4844 0.499712 0.520118 0.547144 0.582687 0.62894 0.688257 0.762671 0.853175 0.958571 1.07458 1.1936 1.30634 1.40436 1.48282 1.54104 1.58164 1.60851 1.62561 1.63605 1.64216 1.64544 1.64695 1.64729 1.6469 1.64597 1.64471 1.64316 1.64143 1.63948 1.63741 1.63517 1.63282 1.6303 1.62769 1.62493 1.62209 1.61912 1.61608 1.61292 1.60973 1.60645 1.60315 1.59981 1.59649 1.59315 1.58988 1.58663 1.58347 1.58037 1.5774 1.57452 1.5718 1.56919 1.56675 1.56445 1.56233 1.56036 1.55857 1.55695 1.55551 1.55423 1.55313 1.5522 1.55145 1.55085 1.55044 1.55019 1.55011 1.55019 1.55044 1.55085 1.55145 1.5522 1.55313 1.55423 1.55551 1.55695 1.55857 1.56036 1.56233 1.56445 1.56675 1.56919 1.5718 1.57452 1.5774 1.58037 1.58347 1.58663 1.58988 1.59315 1.59649 1.59981 1.60315 1.60645 1.60973 1.61292 1.61608 1.61912 1.62209 1.62493 1.62769 1.6303 1.63282 1.63517 1.63741 1.63948 1.64143 1.64316 1.64471 1.64597 1.6469 1.64729 1.64695 1.64544 1.64216 1.63605 1.62561 1.60851 1.58164 1.54104 1.48282 1.40436 1.30633 1.1936 1.07457 0.958565 0.853169 0.762667 0.688256 0.628943 0.582695 0.547158 0.520139 0.49974 0.484436 0.473012 0.464535 0.458285 0.453718 0.450416 0.448064 0.446425 0.445312 0.444592 0.444154 0.443925 0.443837 0.44385 0.443924 0.444041 0.444172 0.444315 0.444449 0.444578 0.444687 0.444785 0.444859 0.444919 0.444956 0.444981 0.444988 0.444988 0.44498 0.444976 0.444977 0.444988 0.445002 0.448153 0.448089 0.447983 0.447847 0.447685 0.447496 0.447284 0.447045 0.446784 0.446498 0.446196 0.445875 0.445546 0.445209 0.444878 0.444554 0.444256 0.44399 0.443783 0.443654 0.44364 0.44378 0.444138 0.444783 0.445821 0.447381 0.44964 0.452828 0.457248 0.463302 0.471519 0.482594 0.497431 0.517208 0.543409 0.577884 0.62279 0.680471 0.753018 0.841589 0.945298 1.06027 1.17928 1.29315 1.3932 1.4741 1.53469 1.57727 1.60565 1.62381 1.63497 1.64157 1.64518 1.64692 1.64741 1.64715 1.64632 1.64515 1.64369 1.64204 1.64018 1.6382 1.63605 1.6338 1.63139 1.62889 1.62624 1.62351 1.62065 1.61772 1.61468 1.61159 1.60841 1.60521 1.60196 1.59871 1.59544 1.5922 1.58899 1.58585 1.58276 1.57977 1.57687 1.57411 1.57146 1.56896 1.5666 1.56441 1.56237 1.56051 1.55882 1.55731 1.55596 1.55481 1.55382 1.55303 1.5524 1.55196 1.55169 1.55161 1.55169 1.55196 1.5524 1.55303 1.55382 1.55481 1.55596 1.55731 1.55882 1.56051 1.56237 1.56441 1.5666 1.56896 1.57146 1.57411 1.57687 1.57977 1.58276 1.58585 1.58899 1.5922 1.59544 1.59871 1.60196 1.60521 1.60841 1.61159 1.61468 1.61772 1.62065 1.62351 1.62624 1.62889 1.63139 1.6338 1.63605 1.6382 1.64018 1.64204 1.64369 1.64515 1.64632 1.64715 1.64741 1.64692 1.64518 1.64157 1.63498 1.62382 1.60565 1.57727 1.53469 1.4741 1.3932 1.29314 1.17928 1.06026 0.945292 0.841584 0.753015 0.680471 0.622794 0.577893 0.543424 0.51723 0.497462 0.482633 0.471566 0.463357 0.457309 0.452893 0.449707 0.447444 0.445873 0.444816 0.444143 0.443746 0.443555 0.443503 0.443556 0.443669 0.443829 0.444008 0.444201 0.444391 0.44458 0.444755 0.444922 0.44507 0.445208 0.445327 0.445435 0.445528 0.445613 0.445688 0.445759 0.445825 0.445883 0.445923 0.449024 0.448938 0.448791 0.448597 0.448366 0.448102 0.44781 0.44749 0.447148 0.446782 0.446404 0.446009 0.445612 0.44521 0.444818 0.444438 0.444088 0.443774 0.443522 0.443348 0.443292 0.443389 0.443699 0.444292 0.445268 0.446752 0.448914 0.451976 0.456231 0.462069 0.469996 0.480687 0.495013 0.514113 0.539424 0.572747 0.616194 0.672093 0.742585 0.828997 0.930766 1.04446 1.16329 1.27823 1.38044 1.46402 1.52728 1.57213 1.60226 1.62167 1.63369 1.64085 1.64485 1.64685 1.64754 1.64741 1.6467 1.64563 1.64425 1.64269 1.64093 1.63904 1.63699 1.63484 1.63254 1.63015 1.62762 1.62501 1.62227 1.61946 1.61653 1.61356 1.61049 1.60739 1.60423 1.60106 1.59786 1.59469 1.59152 1.58841 1.58534 1.58236 1.57945 1.57666 1.57397 1.57143 1.56902 1.56677 1.56466 1.56274 1.56098 1.55941 1.558 1.55679 1.55576 1.55492 1.55426 1.55379 1.55351 1.55342 1.55351 1.55379 1.55426 1.55492 1.55576 1.55679 1.558 1.55941 1.56098 1.56274 1.56466 1.56677 1.56902 1.57143 1.57397 1.57666 1.57945 1.58236 1.58534 1.58841 1.59152 1.59469 1.59786 1.60106 1.60423 1.60739 1.61049 1.61356 1.61653 1.61946 1.62227 1.62501 1.62762 1.63015 1.63254 1.63484 1.63699 1.63904 1.64093 1.64269 1.64425 1.64563 1.6467 1.64741 1.64754 1.64685 1.64485 1.64086 1.63369 1.62167 1.60226 1.57213 1.52728 1.46402 1.38043 1.27823 1.16328 1.04445 0.930759 0.828992 0.742583 0.672093 0.616199 0.572757 0.539441 0.514137 0.495046 0.480728 0.470046 0.462126 0.456295 0.452042 0.448981 0.446812 0.445317 0.444319 0.443696 0.443343 0.443192 0.443179 0.44327 0.443424 0.443627 0.443852 0.444096 0.44434 0.444588 0.444826 0.445059 0.445278 0.44549 0.445685 0.445872 0.446043 0.446205 0.446352 0.446489 0.446609 0.446707 0.446768 0.449815 0.449711 0.44953 0.449288 0.448998 0.448667 0.448304 0.44791 0.447493 0.447055 0.446604 0.446141 0.445678 0.445215 0.444765 0.444331 0.44393 0.443568 0.443271 0.443054 0.442955 0.443007 0.443269 0.443807 0.444717 0.44612 0.448179 0.451108 0.455189 0.460795 0.468416 0.478698 0.492482 0.510861 0.535227 0.567321 0.609207 0.663186 0.731446 0.815472 0.915034 1.02718 1.1456 1.26153 1.36595 1.45244 1.51868 1.56611 1.59825 1.61912 1.63214 1.63998 1.64443 1.64674 1.64764 1.64767 1.64709 1.64613 1.64485 1.64339 1.64172 1.63993 1.63798 1.63594 1.63375 1.63147 1.62906 1.62657 1.62395 1.62126 1.61846 1.61561 1.61266 1.60967 1.60661 1.60353 1.60042 1.59731 1.5942 1.59114 1.5881 1.58513 1.58222 1.57942 1.57671 1.57414 1.57168 1.56939 1.56723 1.56525 1.56343 1.5618 1.56034 1.55908 1.55799 1.55712 1.55642 1.55593 1.55563 1.55554 1.55563 1.55593 1.55642 1.55712 1.55799 1.55908 1.56034 1.5618 1.56343 1.56525 1.56723 1.56939 1.57168 1.57414 1.57671 1.57942 1.58222 1.58513 1.5881 1.59114 1.5942 1.59731 1.60042 1.60353 1.60661 1.60967 1.61266 1.61561 1.61846 1.62126 1.62395 1.62657 1.62906 1.63147 1.63375 1.63594 1.63798 1.63993 1.64172 1.64339 1.64485 1.64613 1.64709 1.64768 1.64765 1.64674 1.64443 1.63999 1.63214 1.61912 1.59825 1.56611 1.51867 1.45244 1.36595 1.26153 1.14559 1.02717 0.915028 0.815467 0.731443 0.663187 0.609212 0.567332 0.535245 0.510887 0.492516 0.478741 0.468468 0.460854 0.455254 0.451176 0.448246 0.446179 0.444763 0.443829 0.443259 0.442951 0.442841 0.442867 0.442997 0.443192 0.443437 0.443707 0.443999 0.444296 0.4446 0.444897 0.445194 0.445479 0.44576 0.446026 0.446284 0.446525 0.446755 0.446966 0.447159 0.447324 0.447455 0.447532 0.450527 0.450408 0.450198 0.449915 0.449575 0.449187 0.448761 0.4483 0.447817 0.447311 0.446795 0.446268 0.445744 0.445223 0.444718 0.444233 0.443783 0.443376 0.443036 0.442776 0.442634 0.44264 0.442853 0.443334 0.444176 0.445494 0.447445 0.450234 0.454132 0.459495 0.466794 0.476646 0.489859 0.507482 0.530852 0.561649 0.601881 0.653815 0.719672 0.801088 0.898167 1.00845 1.12619 1.24296 1.34961 1.4392 1.50871 1.55907 1.59352 1.61608 1.63028 1.63892 1.6439 1.64657 1.64773 1.64794 1.64749 1.64665 1.64548 1.64411 1.64254 1.64085 1.63901 1.63707 1.63499 1.63283 1.63054 1.62817 1.62568 1.62312 1.62045 1.61772 1.61489 1.61202 1.60907 1.6061 1.60308 1.60006 1.59702 1.59401 1.59101 1.58808 1.58519 1.58239 1.57968 1.57708 1.5746 1.57226 1.57006 1.56804 1.56617 1.56448 1.56297 1.56167 1.56054 1.55963 1.5589 1.55839 1.55808 1.55798 1.55808 1.55839 1.5589 1.55963 1.56054 1.56167 1.56297 1.56448 1.56617 1.56804 1.57006 1.57226 1.5746 1.57708 1.57968 1.58239 1.58519 1.58808 1.59101 1.59401 1.59702 1.60006 1.60308 1.6061 1.60907 1.61202 1.61489 1.61772 1.62045 1.62312 1.62568 1.62817 1.63054 1.63283 1.63499 1.63707 1.63901 1.64085 1.64254 1.64411 1.64548 1.64665 1.6475 1.64794 1.64773 1.64657 1.6439 1.63892 1.63028 1.61608 1.59352 1.55907 1.50871 1.43919 1.3496 1.24295 1.12619 1.00844 0.89816 0.801083 0.719669 0.653817 0.601887 0.561661 0.530871 0.507509 0.489895 0.476691 0.466847 0.459556 0.454199 0.450303 0.447513 0.445553 0.44422 0.443352 0.442836 0.442575 0.442507 0.442573 0.442742 0.442976 0.443261 0.443575 0.443913 0.444259 0.444615 0.444968 0.445323 0.44567 0.446013 0.446343 0.446665 0.446969 0.447259 0.447524 0.447765 0.447969 0.448126 0.448217 0.451159 0.451028 0.450794 0.450478 0.450095 0.449657 0.449176 0.448658 0.448114 0.447549 0.446973 0.446388 0.445808 0.445234 0.444678 0.444145 0.44365 0.4432 0.442817 0.442516 0.442331 0.442293 0.442456 0.442878 0.44365 0.44488 0.44672 0.449363 0.45307 0.45818 0.465143 0.474549 0.487167 0.504001 0.526332 0.555773 0.594269 0.644043 0.707336 0.785923 0.880233 0.988328 1.10506 1.22242 1.33125 1.4241 1.4972 1.55083 1.58794 1.61246 1.62804 1.63761 1.64323 1.64632 1.64777 1.64818 1.6479 1.64718 1.64613 1.64486 1.6434 1.64181 1.64007 1.63824 1.63628 1.63423 1.63206 1.62982 1.62746 1.62503 1.62249 1.61988 1.61719 1.61443 1.61161 1.60875 1.60583 1.6029 1.59995 1.59701 1.59407 1.59117 1.58832 1.58554 1.58283 1.58023 1.57773 1.57537 1.57314 1.57108 1.56917 1.56744 1.56589 1.56454 1.56338 1.56244 1.56169 1.56116 1.56083 1.56073 1.56083 1.56116 1.56169 1.56244 1.56338 1.56454 1.56589 1.56744 1.56917 1.57108 1.57314 1.57537 1.57773 1.58023 1.58283 1.58554 1.58832 1.59117 1.59407 1.59701 1.59995 1.6029 1.60583 1.60875 1.61161 1.61443 1.61719 1.61988 1.62249 1.62503 1.62746 1.62982 1.63206 1.63423 1.63628 1.63824 1.64007 1.64181 1.6434 1.64486 1.64613 1.64718 1.6479 1.64819 1.64777 1.64632 1.64323 1.63762 1.62804 1.61246 1.58794 1.55083 1.49719 1.4241 1.33125 1.22242 1.10506 0.988321 0.880227 0.785918 0.707334 0.644045 0.594276 0.555786 0.526352 0.50403 0.487204 0.474595 0.465198 0.458243 0.453138 0.449433 0.446788 0.444939 0.443693 0.442894 0.442434 0.442221 0.442195 0.4423 0.442506 0.442778 0.443102 0.443456 0.443837 0.444229 0.444633 0.445037 0.445445 0.445847 0.446247 0.446634 0.447012 0.447372 0.447713 0.448025 0.448306 0.448542 0.448721 0.448823 0.451714 0.451573 0.45132 0.450975 0.450557 0.450076 0.449549 0.44898 0.448384 0.447765 0.447137 0.4465 0.44587 0.445247 0.444646 0.444068 0.443531 0.443041 0.442618 0.442278 0.442052 0.441969 0.442081 0.442445 0.443145 0.444285 0.44601 0.448503 0.452013 0.456862 0.463478 0.472422 0.484426 0.500445 0.521699 0.549734 0.586423 0.633935 0.694516 0.770063 0.861315 0.96686 1.08221 1.19986 1.31074 1.40694 1.48391 1.5412 1.58133 1.60813 1.62533 1.63601 1.64236 1.64595 1.64774 1.6484 1.6483 1.64772 1.64679 1.64563 1.64427 1.64278 1.64115 1.63943 1.63758 1.63565 1.63361 1.63149 1.62926 1.62696 1.62455 1.62208 1.61952 1.61689 1.61419 1.61145 1.60865 1.60582 1.60296 1.6001 1.59724 1.5944 1.59159 1.58885 1.58616 1.58357 1.58107 1.5787 1.57646 1.57437 1.57243 1.57067 1.56909 1.56771 1.56652 1.56555 1.56478 1.56423 1.5639 1.56379 1.5639 1.56423 1.56478 1.56555 1.56652 1.56771 1.56909 1.57067 1.57243 1.57437 1.57646 1.5787 1.58107 1.58357 1.58616 1.58885 1.59159 1.5944 1.59724 1.6001 1.60296 1.60582 1.60865 1.61145 1.61419 1.61689 1.61952 1.62208 1.62455 1.62696 1.62926 1.63149 1.63361 1.63565 1.63758 1.63943 1.64115 1.64278 1.64427 1.64563 1.64679 1.64772 1.6483 1.6484 1.64774 1.64595 1.64236 1.63601 1.62533 1.60813 1.58133 1.5412 1.48391 1.40694 1.31074 1.19985 1.0822 0.966853 0.861308 0.770058 0.694514 0.633937 0.58643 0.549748 0.521721 0.500474 0.484465 0.47247 0.463535 0.456926 0.452083 0.448575 0.446079 0.444345 0.443187 0.442459 0.442056 0.441891 0.441907 0.442051 0.442293 0.442601 0.442961 0.443353 0.443773 0.444206 0.444654 0.445104 0.445559 0.446011 0.44646 0.446897 0.447325 0.447731 0.448116 0.448469 0.448783 0.449044 0.449241 0.449353 0.452194 0.452046 0.451777 0.451409 0.450961 0.450445 0.449877 0.449266 0.448625 0.447961 0.447286 0.446604 0.445929 0.445264 0.444621 0.444004 0.443429 0.442901 0.442441 0.442063 0.441797 0.441671 0.441734 0.442038 0.442666 0.443714 0.445321 0.447661 0.450968 0.45555 0.461811 0.470281 0.481656 0.496838 0.516987 0.543574 0.578396 0.623558 0.681294 0.753601 0.841508 0.944124 1.05765 1.1752 1.28792 1.3875 1.4686 1.52994 1.57351 1.60294 1.62204 1.63402 1.64126 1.64544 1.64763 1.64857 1.64868 1.64825 1.64745 1.64641 1.64516 1.64378 1.64226 1.64064 1.63891 1.63709 1.63517 1.63318 1.63108 1.62891 1.62664 1.6243 1.62187 1.61938 1.61681 1.61419 1.61151 1.6088 1.60604 1.60328 1.60049 1.59773 1.59498 1.59228 1.58964 1.58707 1.58459 1.58222 1.57997 1.57787 1.57592 1.57414 1.57254 1.57113 1.56992 1.56892 1.56814 1.56758 1.56724 1.56713 1.56724 1.56758 1.56814 1.56892 1.56992 1.57113 1.57254 1.57414 1.57592 1.57787 1.57997 1.58222 1.58459 1.58707 1.58964 1.59228 1.59498 1.59773 1.60049 1.60328 1.60604 1.6088 1.61151 1.61419 1.61681 1.61938 1.62187 1.6243 1.62664 1.62891 1.63108 1.63318 1.63517 1.63709 1.63891 1.64064 1.64226 1.64378 1.64516 1.64641 1.64745 1.64825 1.64868 1.64857 1.64763 1.64544 1.64126 1.63402 1.62204 1.60295 1.57351 1.52994 1.4686 1.3875 1.28792 1.1752 1.05764 0.944116 0.841501 0.753596 0.681293 0.623561 0.578404 0.543588 0.517009 0.496868 0.481695 0.47033 0.461869 0.455616 0.45104 0.447734 0.445392 0.443775 0.442708 0.442051 0.441706 0.441589 0.441647 0.441827 0.442104 0.442446 0.44284 0.443266 0.443722 0.444192 0.444678 0.445168 0.445665 0.446159 0.446651 0.447132 0.447601 0.448048 0.44847 0.448855 0.449196 0.449479 0.449691 0.449809 0.452603 0.452449 0.452168 0.451782 0.451309 0.450764 0.450163 0.449516 0.448837 0.448134 0.44742 0.446699 0.445986 0.445283 0.444604 0.443952 0.443343 0.442782 0.442288 0.441875 0.441571 0.441403 0.441416 0.441662 0.442216 0.443172 0.44466 0.446843 0.449945 0.454254 0.460153 0.468142 0.478875 0.493205 0.512227 0.537335 0.570244 0.612983 0.667759 0.736642 0.820925 0.920222 1.03145 1.14843 1.26266 1.36555 1.45098 1.51677 1.56422 1.5967 1.61802 1.63155 1.63985 1.64473 1.6474 1.64867 1.64901 1.64877 1.64811 1.64719 1.64605 1.64478 1.64336 1.64186 1.64024 1.63854 1.63674 1.63487 1.6329 1.63086 1.62873 1.62653 1.62423 1.62188 1.61944 1.61696 1.6144 1.61181 1.60916 1.6065 1.60382 1.60114 1.59846 1.59583 1.59323 1.59071 1.58825 1.58591 1.58367 1.58157 1.57962 1.57783 1.57621 1.5748 1.57357 1.57256 1.57176 1.57119 1.57085 1.57073 1.57085 1.57119 1.57176 1.57256 1.57357 1.5748 1.57621 1.57783 1.57962 1.58157 1.58367 1.58591 1.58825 1.59071 1.59323 1.59583 1.59846 1.60114 1.60382 1.6065 1.60916 1.61181 1.6144 1.61696 1.61944 1.62188 1.62423 1.62653 1.62873 1.63086 1.6329 1.63487 1.63674 1.63854 1.64024 1.64186 1.64336 1.64478 1.64605 1.64719 1.64811 1.64877 1.64901 1.64867 1.6474 1.64473 1.63985 1.63156 1.61802 1.59671 1.56422 1.51677 1.45098 1.36555 1.26266 1.14843 1.03145 0.920214 0.820918 0.736637 0.667758 0.612986 0.570252 0.53735 0.512249 0.493236 0.478915 0.468192 0.460213 0.454322 0.450019 0.446918 0.444732 0.443234 0.442259 0.441675 0.441388 0.441318 0.441416 0.441633 0.441942 0.442315 0.44274 0.443197 0.443684 0.444186 0.444706 0.445231 0.445763 0.446293 0.446821 0.447338 0.447842 0.448321 0.448773 0.449185 0.449549 0.449849 0.450071 0.450195 0.452945 0.452786 0.452495 0.452094 0.451602 0.451034 0.450407 0.449731 0.449021 0.448286 0.447539 0.446786 0.446041 0.445307 0.444597 0.443915 0.443275 0.442684 0.44216 0.441714 0.441374 0.441166 0.441131 0.441319 0.4418 0.442663 0.44403 0.446056 0.44895 0.452984 0.458517 0.466018 0.476103 0.48957 0.507452 0.53106 0.562022 0.602283 0.654005 0.719304 0.7997 0.895286 1.00371 1.11957 1.23486 1.34088 1.43077 1.50137 1.55318 1.58918 1.61311 1.62849 1.63804 1.64377 1.64701 1.64867 1.64929 1.64925 1.64875 1.64796 1.64695 1.64578 1.64448 1.64308 1.64157 1.63999 1.63831 1.63656 1.63472 1.63281 1.63081 1.62874 1.62659 1.62437 1.62207 1.61972 1.61729 1.61482 1.6123 1.60975 1.60717 1.60459 1.602 1.59944 1.59691 1.59444 1.59203 1.58972 1.58751 1.58542 1.58348 1.5817 1.58008 1.57866 1.57743 1.57641 1.57561 1.57503 1.57468 1.57457 1.57468 1.57503 1.57561 1.57641 1.57743 1.57866 1.58008 1.5817 1.58348 1.58542 1.58751 1.58972 1.59203 1.59444 1.59691 1.59944 1.602 1.60459 1.60717 1.60975 1.6123 1.61482 1.61729 1.61972 1.62207 1.62437 1.62659 1.62874 1.63081 1.63281 1.63472 1.63656 1.63831 1.63999 1.64157 1.64308 1.64448 1.64578 1.64695 1.64796 1.64875 1.64925 1.64929 1.64867 1.64701 1.64377 1.63804 1.62849 1.61312 1.58918 1.55318 1.50137 1.43077 1.34088 1.23485 1.11956 1.0037 0.895278 0.799694 0.719299 0.654003 0.602286 0.56203 0.531074 0.507474 0.489602 0.476144 0.466069 0.458578 0.453053 0.449025 0.446133 0.444104 0.442726 0.441844 0.441333 0.441103 0.441081 0.441218 0.441469 0.441809 0.44221 0.442662 0.443146 0.44366 0.44419 0.444737 0.445291 0.445852 0.446412 0.44697 0.447516 0.448047 0.448553 0.449029 0.449461 0.449842 0.450155 0.450386 0.450514 0.453221 0.453059 0.452761 0.452349 0.451842 0.451257 0.450609 0.44991 0.449176 0.448416 0.447643 0.446