# vtk DataFile Version 3.0
Immiscible displacement
ASCII
DATASET RECTILINEAR_GRID
DIMENSIONS 200 200 1
X_COORDINATES 200 double
1 2 3 4 5 6 7 8 9 10 11 12 13 14 15 16 17 18 19 20 21 22 23 24 25 26 27 28 29 30 31 32 33 34 35 36 37 38 39 40 41 42 43 44 45 46 47 48 49 50 51 52 53 54 55 56 57 58 59 60 61 62 63 64 65 66 67 68 69 70 71 72 73 74 75 76 77 78 79 80 81 82 83 84 85 86 87 88 89 90 91 92 93 94 95 96 97 98 99 100 101 102 103 104 105 106 107 108 109 110 111 112 113 114 115 116 117 118 119 120 121 122 123 124 125 126 127 128 129 130 131 132 133 134 135 136 137 138 139 140 141 142 143 144 145 146 147 148 149 150 151 152 153 154 155 156 157 158 159 160 161 162 163 164 165 166 167 168 169 170 171 172 173 174 175 176 177 178 179 180 181 182 183 184 185 186 187 188 189 190 191 192 193 194 195 196 197 198 199 200 
Y_COORDINATES 200 double
1 2 3 4 5 6 7 8 9 10 11 12 13 14 15 16 17 18 19 20 21 22 23 24 25 26 27 28 29 30 31 32 33 34 35 36 37 38 39 40 41 42 43 44 45 46 47 48 49 50 51 52 53 54 55 56 57 58 59 60 61 62 63 64 65 66 67 68 69 70 71 72 73 74 75 76 77 78 79 80 81 82 83 84 85 86 87 88 89 90 91 92 93 94 95 96 97 98 99 100 101 102 103 104 105 106 107 108 109 110 111 112 113 114 115 116 117 118 119 120 121 122 123 124 125 126 127 128 129 130 131 132 133 134 135 136 137 138 139 140 141 142 143 144 145 146 147 148 149 150 151 152 153 154 155 156 157 158 159 160 161 162 163 164 165 166 167 168 169 170 171 172 173 174 175 176 177 178 179 180 181 182 183 184 185 186 187 188 189 190 191 192 193 194 195 196 197 198 199 200 
Z_COORDINATES 1 double
0
POINT_DATA 40000
SCALARS rho double 1
LOOKUP_TABLE default
0.427447 0.427475 0.427518 0.427573 0.427639 0.427719 0.427812 0.427922 0.428048 0.428194 0.42836 0.428548 0.42876 0.428999 0.429269 0.429576 0.429926 0.430332 0.430807 0.431372 0.432054 0.432891 0.433932 0.435247 0.436926 0.439092 0.44191 0.4456 0.450454 0.456868 0.465358 0.476619 0.491555 0.511352 0.537521 0.571948 0.616866 0.674708 0.747702 0.837125 0.942181 1.05892 1.17992 1.29559 1.39698 1.47858 1.53935 1.58177 1.60991 1.62784 1.6389 1.6455 1.64928 1.65131 1.65224 1.6525 1.65235 1.65195 1.65138 1.65072 1.65 1.64925 1.64847 1.64769 1.64689 1.6461 1.6453 1.64452 1.64373 1.64296 1.64219 1.64143 1.64069 1.63996 1.63924 1.63854 1.63785 1.63718 1.63653 1.63591 1.6353 1.63472 1.63416 1.63363 1.63312 1.63264 1.63219 1.63177 1.63138 1.63102 1.63069 1.6304 1.63014 1.62991 1.62972 1.62957 1.62944 1.62936 1.62931 1.62929 1.62931 1.62938 1.62947 1.6296 1.62976 1.62997 1.6302 1.63047 1.63077 1.63111 1.63147 1.63187 1.6323 1.63276 1.63324 1.63375 1.63429 1.63485 1.63544 1.63605 1.63668 1.63733 1.638 1.63869 1.63939 1.64011 1.64084 1.64159 1.64234 1.64311 1.64389 1.64467 1.64546 1.64625 1.64704 1.64784 1.64862 1.6494 1.65014 1.65086 1.65152 1.65208 1.65247 1.65262 1.65234 1.65139 1.64934 1.64551 1.63884 1.62767 1.60958 1.58122 1.53849 1.47734 1.39534 1.29362 1.17776 1.05676 0.940186 0.835406 0.746304 0.673623 0.616059 0.571375 0.537136 0.511118 0.491438 0.476593 0.465404 0.456968 0.450598 0.445776 0.442112 0.439314 0.437162 0.435494 0.434187 0.43315 0.432316 0.431634 0.431068 0.43059 0.430179 0.429822 0.429507 0.429229 0.428979 0.428757 0.428557 0.428381 0.428224 0.428087 0.427968 0.427868 0.427783 0.427713 0.427657 0.427613 0.427579 0.427558 0.427482 0.427505 0.427544 0.427597 0.427662 0.427741 0.427833 0.427943 0.428069 0.428214 0.428379 0.428566 0.428777 0.429015 0.429283 0.429588 0.429936 0.43034 0.430812 0.431374 0.432052 0.432885 0.433921 0.43523 0.436901 0.439058 0.441861 0.445534 0.450365 0.456747 0.465195 0.4764 0.49126 0.510957 0.536991 0.571243 0.615935 0.673499 0.746168 0.835247 0.939989 1.05652 1.17749 1.29333 1.39506 1.47708 1.53826 1.58103 1.60941 1.62753 1.6387 1.64539 1.64922 1.65127 1.65223 1.6525 1.65236 1.65196 1.6514 1.65075 1.65003 1.64928 1.6485 1.64772 1.64693 1.64614 1.64535 1.64456 1.64378 1.64301 1.64224 1.64149 1.64074 1.64002 1.6393 1.6386 1.63791 1.63725 1.6366 1.63598 1.63537 1.6348 1.63424 1.63371 1.6332 1.63273 1.63227 1.63186 1.63146 1.63111 1.63078 1.63049 1.63023 1.63001 1.62981 1.62966 1.62953 1.62945 1.6294 1.62939 1.62941 1.62947 1.62956 1.62969 1.62985 1.63006 1.63029 1.63056 1.63086 1.6312 1.63156 1.63196 1.63238 1.63284 1.63332 1.63383 1.63436 1.63493 1.63551 1.63612 1.63675 1.6374 1.63806 1.63875 1.63945 1.64017 1.6409 1.64165 1.64239 1.64316 1.64393 1.64472 1.6455 1.64629 1.64708 1.64787 1.64865 1.64943 1.65017 1.65089 1.65153 1.65209 1.65248 1.65262 1.65233 1.65136 1.64927 1.64539 1.63864 1.62736 1.60909 1.58047 1.53739 1.47583 1.39342 1.29137 1.17534 1.05437 0.938007 0.833541 0.744781 0.672424 0.615135 0.570676 0.536611 0.510726 0.491145 0.476376 0.465241 0.456848 0.450508 0.44571 0.442062 0.439278 0.437136 0.435477 0.434175 0.433144 0.432313 0.431635 0.431071 0.430596 0.430187 0.429832 0.429519 0.429242 0.428994 0.428773 0.428575 0.428399 0.428242 0.428106 0.427987 0.427887 0.427802 0.427733 0.427677 0.427633 0.427602 0.427584 0.427535 0.427554 0.427589 0.427638 0.427701 0.427778 0.42787 0.427978 0.428103 0.428247 0.428411 0.428596 0.428805 0.42904 0.429306 0.429608 0.429952 0.430352 0.430819 0.431376 0.432047 0.432872 0.433899 0.435196 0.436851 0.438987 0.441765 0.445404 0.450189 0.456511 0.464877 0.475973 0.490687 0.510187 0.535962 0.569875 0.614131 0.671159 0.743201 0.831613 0.935746 1.05187 1.17276 1.28892 1.39129 1.47411 1.53609 1.57953 1.60843 1.6269 1.63831 1.64515 1.64908 1.6512 1.6522 1.6525 1.65238 1.65199 1.65144 1.6508 1.65008 1.64934 1.64857 1.64779 1.647 1.64621 1.64542 1.64464 1.64386 1.6431 1.64233 1.64158 1.64084 1.64012 1.6394 1.63871 1.63803 1.63737 1.63672 1.63611 1.6355 1.63493 1.63437 1.63384 1.63334 1.63287 1.63242 1.632 1.63161 1.63126 1.63093 1.63064 1.63038 1.63016 1.62997 1.62981 1.62969 1.62961 1.62955 1.62955 1.62956 1.62963 1.62972 1.62985 1.63001 1.63021 1.63044 1.63071 1.63101 1.63134 1.6317 1.6321 1.63252 1.63298 1.63345 1.63397 1.63449 1.63506 1.63563 1.63624 1.63686 1.63751 1.63817 1.63886 1.63955 1.64027 1.641 1.64174 1.64249 1.64325 1.64402 1.6448 1.64558 1.64637 1.64715 1.64794 1.64871 1.64948 1.65022 1.65093 1.65157 1.65212 1.6525 1.65262 1.6523 1.65128 1.64913 1.64516 1.63825 1.62673 1.60809 1.57897 1.53522 1.47287 1.38965 1.28696 1.17062 1.04974 0.933788 0.829931 0.741836 0.670101 0.613347 0.569318 0.53559 0.509962 0.490576 0.475951 0.464925 0.456612 0.450332 0.44558 0.441966 0.439207 0.437085 0.43544 0.43415 0.433129 0.432306 0.431634 0.431076 0.430605 0.4302 0.429849 0.429539 0.429265 0.429019 0.4288 0.428603 0.428428 0.428273 0.428137 0.428019 0.427919 0.427834 0.427765 0.42771 0.427669 0.42764 0.427625 0.427599 0.427615 0.427646 0.427691 0.427751 0.427826 0.427916 0.428023 0.428146 0.428289 0.42845 0.428633 0.428839 0.429072 0.429333 0.429631 0.429971 0.430365 0.430826 0.431375 0.432037 0.432851 0.433864 0.435143 0.436776 0.438884 0.441624 0.445213 0.449932 0.456165 0.464414 0.475351 0.489852 0.509069 0.534468 0.567889 0.611517 0.667766 0.738899 0.826339 0.929577 1.04508 1.16583 1.28242 1.38571 1.46971 1.53285 1.57728 1.60694 1.62594 1.63772 1.64479 1.64888 1.6511 1.65215 1.6525 1.6524 1.65203 1.65149 1.65086 1.65015 1.64942 1.64865 1.64788 1.64709 1.64631 1.64553 1.64475 1.64398 1.64322 1.64245 1.64171 1.64097 1.64026 1.63954 1.63886 1.63818 1.63752 1.63688 1.63627 1.63567 1.6351 1.63454 1.63402 1.63352 1.63305 1.6326 1.63219 1.6318 1.63145 1.63113 1.63084 1.63058 1.63036 1.63017 1.63002 1.62989 1.62981 1.62976 1.62975 1.62977 1.62983 1.62992 1.63005 1.63021 1.63041 1.63064 1.63091 1.6312 1.63153 1.63189 1.63229 1.6327 1.63316 1.63363 1.63414 1.63467 1.63523 1.6358 1.6364 1.63702 1.63767 1.63832 1.63901 1.63969 1.64041 1.64113 1.64187 1.64261 1.64337 1.64413 1.64491 1.64568 1.64646 1.64724 1.64803 1.6488 1.64956 1.65029 1.65099 1.65162 1.65216 1.65252 1.65261 1.65225 1.65117 1.64892 1.6448 1.63765 1.62577 1.6066 1.57671 1.53197 1.46845 1.38407 1.28047 1.16371 1.04298 0.927651 0.82469 0.737564 0.666734 0.610752 0.567348 0.534108 0.508852 0.489747 0.475334 0.464464 0.456269 0.450076 0.445389 0.441824 0.439103 0.437009 0.435386 0.434113 0.433105 0.432293 0.43163 0.431079 0.430614 0.430215 0.429868 0.429562 0.429291 0.429049 0.428832 0.428638 0.428464 0.428311 0.428176 0.428059 0.427959 0.427875 0.427807 0.427754 0.427714 0.427688 0.427675 0.427669 0.427682 0.427709 0.427751 0.427808 0.42788 0.427968 0.428073 0.428194 0.428335 0.428494 0.428674 0.428877 0.429106 0.429363 0.429656 0.42999 0.430377 0.43083 0.43137 0.432021 0.432821 0.433816 0.435074 0.436678 0.43875 0.441441 0.444966 0.4496 0.455719 0.463816 0.474549 0.488777 0.50763 0.532546 0.565336 0.608155 0.663403 0.733361 0.819537 0.921598 1.03627 1.15679 1.2739 1.37834 1.46384 1.52851 1.57426 1.60492 1.62465 1.63691 1.6443 1.64859 1.65094 1.65208 1.65249 1.65242 1.65208 1.65156 1.65094 1.65024 1.64951 1.64875 1.64799 1.64721 1.64644 1.64565 1.64489 1.64411 1.64336 1.6426 1.64187 1.64113 1.64042 1.63971 1.63903 1.63835 1.63771 1.63707 1.63646 1.63586 1.6353 1.63475 1.63423 1.63373 1.63327 1.63282 1.63241 1.63203 1.63168 1.63136 1.63107 1.63081 1.6306 1.6304 1.63026 1.63013 1.63005 1.63 1.62999 1.63001 1.63007 1.63016 1.63029 1.63045 1.63065 1.63087 1.63114 1.63143 1.63176 1.63211 1.63251 1.63292 1.63337 1.63384 1.63435 1.63487 1.63542 1.63599 1.63659 1.63721 1.63785 1.6385 1.63918 1.63986 1.64057 1.64128 1.64202 1.64276 1.64351 1.64427 1.64504 1.64581 1.64659 1.64736 1.64814 1.6489 1.64966 1.65038 1.65107 1.65169 1.65221 1.65254 1.65259 1.65218 1.65102 1.64864 1.6443 1.63683 1.62446 1.60457 1.57367 1.52761 1.46257 1.37669 1.27195 1.15469 1.0342 0.91971 0.817927 0.732061 0.662401 0.607415 0.564814 0.532201 0.507424 0.48868 0.474537 0.46387 0.455825 0.449746 0.445142 0.441641 0.438967 0.43691 0.435315 0.434064 0.433072 0.432274 0.431622 0.43108 0.430623 0.43023 0.429889 0.429587 0.429321 0.429081 0.428868 0.428676 0.428505 0.428352 0.428219 0.428103 0.428004 0.427921 0.427855 0.427802 0.427765 0.427741 0.427729 0.427739 0.42775 0.427775 0.427814 0.427868 0.427938 0.428023 0.428126 0.428245 0.428383 0.428539 0.428716 0.428915 0.42914 0.429393 0.42968 0.430008 0.430388 0.430832 0.431361 0.431999 0.432782 0.433757 0.434988 0.436559 0.438586 0.44122 0.444668 0.449199 0.455182 0.463095 0.473583 0.487483 0.505898 0.530235 0.562265 0.604111 0.65815 0.726684 0.811315 0.911916 1.02552 1.14569 1.26335 1.36915 1.45647 1.52303 1.57041 1.60235 1.62298 1.63586 1.64367 1.64822 1.65074 1.65199 1.65246 1.65244 1.65214 1.65163 1.65103 1.65035 1.64963 1.64888 1.64812 1.64735 1.64658 1.6458 1.64504 1.64427 1.64353 1.64277 1.64204 1.64131 1.64061 1.63991 1.63923 1.63856 1.63792 1.63728 1.63668 1.63608 1.63552 1.63498 1.63447 1.63397 1.63351 1.63307 1.63266 1.63228 1.63194 1.63161 1.63133 1.63108 1.63086 1.63067 1.63052 1.6304 1.63032 1.63027 1.63026 1.63028 1.63034 1.63043 1.63056 1.63071 1.63091 1.63113 1.6314 1.63169 1.63202 1.63237 1.63276 1.63317 1.63361 1.63408 1.63458 1.6351 1.63565 1.63621 1.63681 1.63742 1.63806 1.6387 1.63937 1.64005 1.64076 1.64146 1.64219 1.64293 1.64368 1.64443 1.64519 1.64595 1.64673 1.64749 1.64826 1.64902 1.64977 1.65048 1.65116 1.65176 1.65226 1.65256 1.65257 1.65208 1.65082 1.64826 1.64366 1.63578 1.62279 1.60198 1.56981 1.52211 1.45518 1.36749 1.2614 1.14362 1.02349 0.910072 0.80975 0.725425 0.657183 0.603399 0.561767 0.529907 0.505706 0.487397 0.473579 0.463155 0.455292 0.449347 0.444845 0.44142 0.438804 0.436789 0.435228 0.434002 0.433031 0.432248 0.431609 0.431077 0.430629 0.430243 0.429908 0.429612 0.42935 0.429114 0.428904 0.428715 0.428546 0.428396 0.428264 0.428149 0.428051 0.42797 0.427904 0.427853 0.427817 0.427795 0.427785 0.427808 0.427818 0.42784 0.427877 0.427928 0.427996 0.428079 0.428179 0.428296 0.428431 0.428584 0.428758 0.428953 0.429174 0.429421 0.429703 0.430024 0.430395 0.430829 0.431347 0.43197 0.432735 0.433687 0.434888 0.436421 0.438397 0.440964 0.444324 0.448738 0.454563 0.462266 0.472471 0.485994 0.503905 0.527573 0.558729 0.59945 0.65209 0.718965 0.801781 0.900639 1.01293 1.13259 1.25078 1.3581 1.44754 1.51632 1.56568 1.59916 1.62091 1.63456 1.64287 1.64775 1.65048 1.65187 1.65243 1.65247 1.6522 1.65172 1.65113 1.65046 1.64976 1.64902 1.64827 1.6475 1.64674 1.64597 1.64522 1.64445 1.64371 1.64297 1.64224 1.64152 1.64082 1.64012 1.63945 1.63878 1.63815 1.63752 1.63692 1.63633 1.63577 1.63523 1.63472 1.63423 1.63378 1.63334 1.63294 1.63256 1.63222 1.6319 1.63162 1.63136 1.63115 1.63096 1.63082 1.63069 1.63062 1.63056 1.63056 1.63057 1.63063 1.63072 1.63085 1.631 1.6312 1.63142 1.63168 1.63197 1.6323 1.63264 1.63303 1.63344 1.63388 1.63434 1.63484 1.63535 1.6359 1.63646 1.63705 1.63765 1.63828 1.63892 1.63959 1.64027 1.64096 1.64167 1.64239 1.64312 1.64386 1.6446 1.64536 1.64612 1.64689 1.64764 1.64841 1.64916 1.6499 1.6506 1.65127 1.65185 1.65232 1.65258 1.65253 1.65196 1.65055 1.64779 1.64286 1.63447 1.6207 1.59878 1.56505 1.51537 1.44623 1.35643 1.24884 1.13053 1.01093 0.898844 0.800267 0.717753 0.651163 0.598771 0.558256 0.527265 0.503727 0.485919 0.472476 0.462332 0.454677 0.448888 0.444503 0.441165 0.438614 0.43665 0.435126 0.43393 0.432981 0.432217 0.431592 0.431072 0.430632 0.430255 0.429926 0.429636 0.429378 0.429147 0.42894 0.428753 0.428587 0.428438 0.428308 0.428195 0.428098 0.428018 0.427954 0.427904 0.42787 0.427848 0.427839 0.427873 0.427882 0.427903 0.427938 0.427987 0.428052 0.428133 0.42823 0.428345 0.428477 0.428628 0.428798 0.42899 0.429205 0.429448 0.429723 0.430037 0.4304 0.430823 0.431328 0.431935 0.432681 0.433607 0.434775 0.436265 0.438185 0.440678 0.443939 0.448222 0.453872 0.46134 0.47123 0.484331 0.501679 0.524602 0.554779 0.59424 0.645305 0.710304 0.791046 0.887873 0.998565 1.11752 1.23619 1.34513 1.43694 1.5083 1.55997 1.59529 1.61839 1.63296 1.64189 1.64717 1.65016 1.65171 1.65237 1.65248 1.65226 1.65181 1.65125 1.6506 1.6499 1.64917 1.64843 1.64767 1.64692 1.64616 1.64541 1.64465 1.64392 1.64318 1.64246 1.64174 1.64105 1.64036 1.63969 1.63903 1.6384 1.63777 1.63718 1.6366 1.63605 1.63551 1.635 1.63452 1.63406 1.63363 1.63323 1.63286 1.63252 1.6322 1.63193 1.63167 1.63146 1.63127 1.63113 1.63101 1.63093 1.63088 1.63087 1.63089 1.63095 1.63103 1.63116 1.63132 1.63151 1.63173 1.63199 1.63227 1.6326 1.63294 1.63332 1.63373 1.63417 1.63462 1.63512 1.63563 1.63617 1.63672 1.63731 1.63791 1.63853 1.63917 1.63983 1.6405 1.64119 1.64189 1.6426 1.64332 1.64406 1.6448 1.64555 1.6463 1.64706 1.64781 1.64857 1.64931 1.65004 1.65073 1.65138 1.65194 1.65238 1.65259 1.65248 1.65179 1.65022 1.6472 1.64187 1.63286 1.61816 1.59488 1.55931 1.50732 1.4356 1.34344 1.23425 1.11549 0.996614 0.886131 0.789585 0.709142 0.644421 0.593596 0.554333 0.524315 0.501518 0.484268 0.471244 0.461413 0.453991 0.448376 0.444121 0.44088 0.438403 0.436494 0.435012 0.433848 0.432924 0.432179 0.43157 0.431062 0.430633 0.430263 0.429942 0.429657 0.429404 0.429177 0.428974 0.42879 0.428626 0.42848 0.428351 0.428239 0.428144 0.428065 0.428002 0.427953 0.42792 0.427899 0.42789 0.427934 0.427942 0.427962 0.427995 0.428042 0.428105 0.428184 0.428279 0.428391 0.428521 0.428669 0.428836 0.429023 0.429234 0.429472 0.429741 0.430047 0.430401 0.430813 0.431304 0.431895 0.432619 0.433518 0.434651 0.436094 0.437954 0.440367 0.44352 0.44766 0.453119 0.460331 0.469877 0.482518 0.499252 0.52136 0.550467 0.588548 0.637881 0.700802 0.779219 0.87373 0.982531 1.10052 1.21955 1.33016 1.42457 1.49882 1.55317 1.59065 1.61534 1.63102 1.64068 1.64645 1.64975 1.6515 1.6523 1.65249 1.65232 1.65191 1.65138 1.65074 1.65006 1.64934 1.64861 1.64786 1.64712 1.64636 1.64562 1.64487 1.64414 1.64341 1.64269 1.64198 1.64129 1.64061 1.63995 1.63929 1.63867 1.63805 1.63746 1.63688 1.63634 1.6358 1.6353 1.63482 1.63437 1.63394 1.63355 1.63317 1.63284 1.63253 1.63225 1.632 1.63179 1.63161 1.63146 1.63134 1.63127 1.63122 1.63121 1.63122 1.63128 1.63137 1.6315 1.63165 1.63184 1.63206 1.63232 1.6326 1.63292 1.63326 1.63364 1.63404 1.63447 1.63493 1.63541 1.63592 1.63646 1.63701 1.63759 1.63818 1.6388 1.63943 1.64009 1.64075 1.64144 1.64213 1.64284 1.64355 1.64428 1.64501 1.64576 1.6465 1.64726 1.648 1.64875 1.64948 1.6502 1.65087 1.6515 1.65204 1.65244 1.6526 1.6524 1.65158 1.64981 1.64647 1.64065 1.6309 1.61509 1.59022 1.55248 1.49781 1.42319 1.32845 1.21761 1.09852 0.980627 0.872045 0.777817 0.699692 0.637042 0.58794 0.55005 0.521095 0.499108 0.482468 0.469901 0.460411 0.453243 0.447818 0.443704 0.44057 0.438172 0.436323 0.434887 0.433758 0.432861 0.432136 0.431543 0.431049 0.43063 0.430269 0.429955 0.429676 0.429428 0.429205 0.429005 0.428824 0.428663 0.428519 0.428392 0.428281 0.428187 0.428109 0.428047 0.427999 0.427966 0.427947 0.427938 0.427989 0.427997 0.428016 0.428047 0.428093 0.428155 0.428232 0.428325 0.428435 0.428562 0.428706 0.42887 0.429054 0.42926 0.429492 0.429755 0.430053 0.430398 0.4308 0.431277 0.43185 0.432551 0.433421 0.434517 0.435911 0.437706 0.440033 0.443072 0.447059 0.452313 0.459251 0.468429 0.480577 0.496653 0.517887 0.545845 0.58244 0.629901 0.69056 0.766418 0.858325 0.96492 1.08166 1.20084 1.31311 1.41029 1.48775 1.54514 1.58512 1.61168 1.62867 1.63922 1.64557 1.64925 1.65124 1.65219 1.65248 1.65238 1.65202 1.65151 1.6509 1.65023 1.64953 1.64881 1.64807 1.64733 1.64658 1.64585 1.64511 1.64438 1.64366 1.64295 1.64224 1.64156 1.64088 1.64023 1.63958 1.63896 1.63834 1.63776 1.63719 1.63664 1.63612 1.63562 1.63514 1.6347 1.63427 1.63388 1.63351 1.63318 1.63287 1.6326 1.63235 1.63214 1.63196 1.63182 1.6317 1.63162 1.63157 1.63156 1.63158 1.63164 1.63172 1.63185 1.632 1.63219 1.6324 1.63266 1.63294 1.63326 1.63359 1.63397 1.63437 1.6348 1.63525 1.63573 1.63623 1.63676 1.63731 1.63788 1.63847 1.63909 1.63971 1.64036 1.64102 1.6417 1.64238 1.64309 1.6438 1.64452 1.64525 1.64599 1.64672 1.64747 1.6482 1.64894 1.64966 1.65037 1.65103 1.65164 1.65214 1.65249 1.65259 1.65229 1.65132 1.6493 1.64559 1.63918 1.62854 1.61141 1.58466 1.54441 1.48669 1.40887 1.31137 1.1989 1.07969 0.963066 0.856702 0.765078 0.689506 0.629109 0.581871 0.545459 0.517646 0.496528 0.480541 0.468464 0.459339 0.452443 0.447222 0.443259 0.440238 0.437925 0.43614 0.434752 0.43366 0.432791 0.432089 0.431513 0.431032 0.430624 0.430272 0.429965 0.429692 0.429449 0.42923 0.429034 0.428856 0.428697 0.428554 0.428429 0.42832 0.428227 0.42815 0.428088 0.428041 0.428009 0.42799 0.427981 0.428038 0.428046 0.428064 0.428095 0.42814 0.4282 0.428275 0.428366 0.428474 0.428599 0.428741 0.428901 0.429081 0.429283 0.42951 0.429766 0.430057 0.430392 0.430783 0.431245 0.4318 0.432479 0.433319 0.434375 0.435718 0.437445 0.439681 0.4426 0.446426 0.451464 0.458112 0.466903 0.47853 0.493911 0.514222 0.540965 0.575985 0.621452 0.679683 0.752763 0.841785 0.945838 1.06098 1.18005 1.29388 1.39394 1.47492 1.53572 1.57857 1.60731 1.62585 1.63745 1.64449 1.64862 1.6509 1.65204 1.65245 1.65243 1.65212 1.65165 1.65106 1.65042 1.64973 1.64902 1.64829 1.64756 1.64682 1.64609 1.64536 1.64464 1.64392 1.64322 1.64252 1.64184 1.64117 1.64052 1.63988 1.63926 1.63866 1.63808 1.63751 1.63697 1.63645 1.63596 1.63548 1.63504 1.63462 1.63424 1.63387 1.63354 1.63323 1.63296 1.63272 1.63251 1.63233 1.63219 1.63207 1.632 1.63195 1.63194 1.63195 1.63201 1.63209 1.63222 1.63237 1.63256 1.63277 1.63302 1.6333 1.63361 1.63395 1.63432 1.63471 1.63514 1.63559 1.63606 1.63656 1.63709 1.63763 1.6382 1.63878 1.63939 1.64001 1.64065 1.64131 1.64198 1.64266 1.64336 1.64406 1.64478 1.6455 1.64623 1.64696 1.64769 1.64842 1.64915 1.64986 1.65055 1.65119 1.65177 1.65224 1.65254 1.65256 1.65213 1.65098 1.64867 1.6445 1.6374 1.6257 1.60702 1.57807 1.53494 1.47381 1.39248 1.29212 1.17813 1.05905 0.94404 0.840226 0.751487 0.678688 0.620709 0.575455 0.54061 0.514006 0.493805 0.478509 0.466948 0.458209 0.451601 0.446593 0.44279 0.439888 0.437665 0.435947 0.43461 0.433556 0.432717 0.432037 0.431479 0.431012 0.430615 0.430272 0.429972 0.429705 0.429467 0.429252 0.429059 0.428884 0.428727 0.428587 0.428463 0.428355 0.428263 0.428187 0.428126 0.428079 0.428047 0.428028 0.42802 0.428081 0.428089 0.428106 0.428137 0.428181 0.428239 0.428313 0.428403 0.428509 0.428632 0.428771 0.428928 0.429105 0.429302 0.429524 0.429774 0.430058 0.430384 0.430763 0.43121 0.431747 0.432402 0.433211 0.434227 0.435517 0.437173 0.439316 0.442109 0.445768 0.450581 0.456928 0.465314 0.4764 0.491057 0.510404 0.535878 0.569248 0.612619 0.668279 0.738379 0.824243 0.925411 1.03858 1.1572 1.2724 1.37538 1.46011 1.5247 1.57083 1.60211 1.62247 1.63531 1.64318 1.64785 1.65048 1.65184 1.6524 1.65247 1.65223 1.6518 1.65124 1.65062 1.64994 1.64924 1.64852 1.6478 1.64707 1.64635 1.64563 1.64491 1.6442 1.64351 1.64282 1.64214 1.64148 1.64083 1.6402 1.63959 1.63899 1.63841 1.63785 1.63732 1.6368 1.63631 1.63584 1.63541 1.63499 1.63461 1.63424 1.63392 1.63361 1.63335 1.6331 1.6329 1.63272 1.63258 1.63246 1.63239 1.63234 1.63233 1.63235 1.6324 1.63248 1.63261 1.63276 1.63294 1.63315 1.6334 1.63368 1.63399 1.63432 1.63469 1.63508 1.6355 1.63594 1.63642 1.63691 1.63743 1.63797 1.63853 1.63911 1.63971 1.64033 1.64096 1.64161 1.64228 1.64295 1.64364 1.64434 1.64505 1.64576 1.64649 1.64721 1.64794 1.64866 1.64937 1.65007 1.65074 1.65136 1.65192 1.65234 1.65258 1.6525 1.65193 1.65055 1.64789 1.64318 1.63524 1.62229 1.60178 1.57029 1.52387 1.45894 1.37387 1.27062 1.15528 1.03668 0.923673 0.822753 0.73717 0.667343 0.611925 0.568759 0.535555 0.510213 0.490969 0.476393 0.46537 0.457033 0.450724 0.44594 0.442303 0.439525 0.437394 0.435746 0.434462 0.433448 0.432639 0.431983 0.431443 0.430989 0.430604 0.43027 0.429976 0.429716 0.429482 0.429271 0.429081 0.428909 0.428754 0.428615 0.428493 0.428386 0.428295 0.428219 0.428158 0.428112 0.42808 0.428061 0.428053 0.428118 0.428125 0.428143 0.428172 0.428216 0.428274 0.428347 0.428435 0.42854 0.42866 0.428797 0.428952 0.429125 0.429318 0.429535 0.429779 0.430055 0.430372 0.430739 0.431173 0.431691 0.432321 0.433099 0.434074 0.435309 0.436893 0.43894 0.441605 0.445091 0.449673 0.455709 0.463678 0.474206 0.488117 0.506472 0.530635 0.562297 0.603488 0.656456 0.723397 0.805845 0.903778 1.01455 1.13231 1.24859 1.35444 1.44312 1.51188 1.5617 1.5959 1.6184 1.63272 1.64157 1.64688 1.64993 1.65157 1.6523 1.65249 1.65232 1.65194 1.65142 1.65082 1.65016 1.64948 1.64877 1.64806 1.64734 1.64663 1.64591 1.64521 1.6445 1.64381 1.64313 1.64246 1.6418 1.64116 1.64053 1.63993 1.63933 1.63876 1.63821 1.63768 1.63717 1.63668 1.63622 1.63579 1.63537 1.63499 1.63463 1.63431 1.63401 1.63375 1.6335 1.6333 1.63312 1.63298 1.63287 1.6328 1.63275 1.63274 1.63275 1.63281 1.63289 1.63301 1.63316 1.63335 1.63355 1.6338 1.63407 1.63438 1.63471 1.63507 1.63546 1.63588 1.63632 1.63679 1.63727 1.63779 1.63832 1.63888 1.63945 1.64005 1.64066 1.64129 1.64193 1.64259 1.64326 1.64395 1.64463 1.64534 1.64604 1.64676 1.64747 1.6482 1.6489 1.64961 1.65029 1.65095 1.65154 1.65206 1.65243 1.6526 1.6524 1.65165 1.65 1.64692 1.64156 1.63263 1.6182 1.59554 1.56111 1.51099 1.4419 1.35289 1.24679 1.13041 1.0127 0.902104 0.804426 0.722257 0.655581 0.602845 0.561849 0.530344 0.506306 0.488049 0.474215 0.463746 0.455823 0.449822 0.445267 0.441802 0.439152 0.437117 0.43554 0.434309 0.433336 0.432558 0.431925 0.431403 0.430964 0.43059 0.430264 0.429978 0.429723 0.429494 0.429287 0.4291 0.42893 0.428777 0.42864 0.428519 0.428413 0.428323 0.428247 0.428187 0.428141 0.428109 0.428089 0.428081 0.428148 0.428155 0.428173 0.428203 0.428246 0.428303 0.428375 0.428463 0.428565 0.428684 0.428819 0.428971 0.429141 0.429331 0.429543 0.429781 0.43005 0.430358 0.430714 0.431133 0.431632 0.432239 0.432985 0.433918 0.435098 0.436609 0.438557 0.441091 0.444401 0.448747 0.454467 0.462011 0.47197 0.485119 0.502461 0.525284 0.555197 0.594145 0.644324 0.707952 0.786746 0.8811 0.989031 1.10545 1.22242 1.33097 1.42373 1.49699 1.55095 1.58851 1.6135 1.62957 1.6396 1.64569 1.64925 1.65121 1.65216 1.65248 1.6524 1.65209 1.65161 1.65104 1.6504 1.64973 1.64904 1.64834 1.64763 1.64692 1.64621 1.64551 1.64482 1.64414 1.64346 1.6428 1.64214 1.64151 1.64089 1.64029 1.6397 1.63913 1.63858 1.63806 1.63755 1.63707 1.63661 1.63618 1.63577 1.6354 1.63504 1.63472 1.63442 1.63416 1.63392 1.63372 1.63355 1.63341 1.6333 1.63322 1.63317 1.63316 1.63318 1.63324 1.63332 1.63344 1.63358 1.63377 1.63397 1.63422 1.63449 1.63479 1.63512 1.63548 1.63586 1.63627 1.63671 1.63717 1.63765 1.63817 1.63869 1.63925 1.63981 1.64041 1.64101 1.64164 1.64227 1.64292 1.64359 1.64426 1.64495 1.64564 1.64634 1.64705 1.64776 1.64847 1.64917 1.64986 1.65052 1.65116 1.65172 1.6522 1.65251 1.65259 1.65225 1.65129 1.6493 1.64571 1.63957 1.62946 1.61326 1.5881 1.5503 1.49603 1.42243 1.32937 1.22061 1.10356 0.987228 0.879495 0.785402 0.706883 0.64351 0.593553 0.554789 0.525026 0.50232 0.485071 0.471993 0.462091 0.45459 0.448904 0.444583 0.441292 0.438772 0.436834 0.43533 0.434154 0.433222 0.432475 0.431866 0.431362 0.430937 0.430574 0.430257 0.429977 0.429728 0.429503 0.4293 0.429115 0.428948 0.428797 0.428661 0.428541 0.428436 0.428346 0.428271 0.42821 0.428164 0.428132 0.428112 0.428104 0.428172 0.428179 0.428197 0.428227 0.42827 0.428327 0.428398 0.428485 0.428587 0.428704 0.428837 0.428986 0.429153 0.429339 0.429547 0.42978 0.430042 0.430341 0.430686 0.431091 0.431572 0.432154 0.432869 0.43376 0.434885 0.436321 0.438171 0.440572 0.443705 0.447813 0.453212 0.460328 0.46971 0.48209 0.498407 0.519874 0.548011 0.584675 0.631991 0.692183 0.767112 0.857557 0.962186 1.07672 1.19389 1.30485 1.40169 1.47975 1.53831 1.5797 1.6076 1.62573 1.63718 1.6442 1.64837 1.65073 1.65194 1.65243 1.65247 1.65222 1.65179 1.65126 1.65064 1.65 1.64932 1.64863 1.64793 1.64723 1.64653 1.64584 1.64515 1.64447 1.6438 1.64315 1.6425 1.64187 1.64126 1.64066 1.64008 1.63952 1.63897 1.63846 1.63795 1.63748 1.63702 1.6366 1.63619 1.63582 1.63547 1.63515 1.63486 1.6346 1.63436 1.63416 1.63399 1.63385 1.63374 1.63367 1.63362 1.63361 1.63362 1.63368 1.63376 1.63388 1.63402 1.6342 1.63441 1.63465 1.63492 1.63522 1.63554 1.6359 1.63627 1.63669 1.63712 1.63758 1.63805 1.63856 1.63908 1.63963 1.64019 1.64078 1.64138 1.642 1.64262 1.64327 1.64393 1.6446 1.64527 1.64597 1.64666 1.64736 1.64805 1.64875 1.64944 1.65012 1.65077 1.65137 1.65191 1.65233 1.65257 1.65253 1.65203 1.65081 1.64842 1.64421 1.63712 1.62559 1.60732 1.57923 1.53758 1.47871 1.40033 1.3032 1.19206 1.07486 0.960438 0.856025 0.765845 0.691184 0.631239 0.584134 0.547645 0.519647 0.49829 0.482061 0.469749 0.460419 0.453344 0.447976 0.443892 0.440777 0.438388 0.436548 0.435118 0.433997 0.433106 0.432391 0.431805 0.43132 0.430908 0.430556 0.430247 0.429974 0.42973 0.429509 0.429309 0.429127 0.428962 0.428812 0.428678 0.428559 0.428454 0.428364 0.428289 0.428229 0.428183 0.42815 0.42813 0.428122 0.42819 0.428198 0.428215 0.428245 0.428288 0.428345 0.428416 0.428502 0.428603 0.428719 0.42885 0.428998 0.429162 0.429345 0.429548 0.429776 0.430032 0.430323 0.430657 0.431048 0.431511 0.432069 0.432752 0.433602 0.434671 0.436033 0.437784 0.440053 0.443008 0.446876 0.451955 0.45864 0.467446 0.479055 0.494344 0.51445 0.540802 0.575159 0.619567 0.676227 0.747116 0.833346 0.934211 1.04627 1.16304 1.27599 1.3768 1.45987 1.52346 1.5692 1.60047 1.62105 1.63419 1.64235 1.64726 1.65011 1.65163 1.65233 1.6525 1.65234 1.65197 1.65148 1.65089 1.65027 1.6496 1.64893 1.64824 1.64755 1.64686 1.64618 1.64549 1.64483 1.64416 1.64352 1.64287 1.64226 1.64164 1.64105 1.64048 1.63992 1.63938 1.63887 1.63837 1.6379 1.63745 1.63703 1.63663 1.63626 1.63591 1.6356 1.6353 1.63505 1.63481 1.63462 1.63444 1.63431 1.6342 1.63413 1.63408 1.63407 1.63408 1.63414 1.63422 1.63434 1.63448 1.63466 1.63486 1.6351 1.63536 1.63566 1.63598 1.63633 1.63671 1.63712 1.63754 1.638 1.63847 1.63897 1.63949 1.64003 1.64059 1.64117 1.64176 1.64237 1.64299 1.64364 1.64429 1.64495 1.64562 1.6463 1.64698 1.64768 1.64836 1.64905 1.64973 1.65039 1.65101 1.65159 1.65208 1.65245 1.6526 1.65242 1.65171 1.65017 1.6473 1.64234 1.63411 1.62088 1.60015 1.56867 1.52266 1.45875 1.37536 1.27429 1.1612 1.04445 0.932527 0.831892 0.745928 0.675302 0.618877 0.574668 0.540475 0.514255 0.494252 0.479044 0.467499 0.458743 0.452096 0.447046 0.443199 0.440261 0.438005 0.436263 0.434905 0.433839 0.43299 0.432305 0.431743 0.431276 0.430878 0.430536 0.430235 0.429969 0.429729 0.429513 0.429315 0.429136 0.428972 0.428824 0.428691 0.428572 0.428468 0.428379 0.428304 0.428243 0.428197 0.428164 0.428143 0.428134 0.428202 0.42821 0.428228 0.428258 0.428301 0.428358 0.428429 0.428515 0.428615 0.42873 0.42886 0.429005 0.429167 0.429347 0.429547 0.42977 0.430019 0.430302 0.430626 0.431003 0.431448 0.431983 0.432636 0.433444 0.434458 0.435747 0.437399 0.439536 0.442314 0.445945 0.450705 0.456962 0.465195 0.476037 0.490304 0.509056 0.533627 0.565676 0.607157 0.660226 0.726933 0.808679 0.905335 1.01431 1.12999 1.24434 1.34886 1.43705 1.50607 1.55669 1.59186 1.61533 1.63049 1.64002 1.64584 1.64928 1.6512 1.65215 1.65248 1.65244 1.65214 1.6517 1.65115 1.65055 1.6499 1.64925 1.64857 1.64789 1.64721 1.64653 1.64586 1.6452 1.64454 1.6439 1.64326 1.64265 1.64205 1.64146 1.64089 1.64034 1.63981 1.6393 1.63881 1.63834 1.6379 1.63748 1.63708 1.63672 1.63637 1.63606 1.63577 1.63552 1.63528 1.63509 1.63492 1.63478 1.63467 1.6346 1.63455 1.63455 1.63456 1.63462 1.63469 1.63481 1.63495 1.63513 1.63533 1.63557 1.63583 1.63612 1.63644 1.63679 1.63716 1.63756 1.63798 1.63843 1.6389 1.6394 1.63991 1.64045 1.641 1.64157 1.64216 1.64277 1.64338 1.64402 1.64466 1.64532 1.64598 1.64665 1.64733 1.64801 1.64869 1.64937 1.65002 1.65067 1.65127 1.65181 1.65225 1.65254 1.65258 1.65224 1.65127 1.64934 1.64586 1.63999 1.63038 1.61512 1.59148 1.55608 1.50519 1.43584 1.34734 1.2426 1.12815 1.01252 0.903721 0.807307 0.725826 0.659372 0.606528 0.565236 0.53334 0.508891 0.490236 0.476045 0.465263 0.457076 0.450854 0.446121 0.442511 0.439748 0.437623 0.435978 0.434694 0.433683 0.432874 0.43222 0.431681 0.431231 0.430847 0.430515 0.430222 0.429961 0.429726 0.429513 0.429319 0.429142 0.42898 0.428833 0.4287 0.428582 0.428478 0.428389 0.428314 0.428253 0.428206 0.428173 0.428152 0.428142 0.428208 0.428216 0.428235 0.428266 0.428309 0.428366 0.428437 0.428522 0.428622 0.428736 0.428865 0.429009 0.429169 0.429346 0.429543 0.