# vtk DataFile Version 3.0
Immiscible displacement
ASCII
DATASET RECTILINEAR_GRID
DIMENSIONS 400 100 1
X_COORDINATES 400 double
1 2 3 4 5 6 7 8 9 10 11 12 13 14 15 16 17 18 19 20 21 22 23 24 25 26 27 28 29 30 31 32 33 34 35 36 37 38 39 40 41 42 43 44 45 46 47 48 49 50 51 52 53 54 55 56 57 58 59 60 61 62 63 64 65 66 67 68 69 70 71 72 73 74 75 76 77 78 79 80 81 82 83 84 85 86 87 88 89 90 91 92 93 94 95 96 97 98 99 100 101 102 103 104 105 106 107 108 109 110 111 112 113 114 115 116 117 118 119 120 121 122 123 124 125 126 127 128 129 130 131 132 133 134 135 136 137 138 139 140 141 142 143 144 145 146 147 148 149 150 151 152 153 154 155 156 157 158 159 160 161 162 163 164 165 166 167 168 169 170 171 172 173 174 175 176 177 178 179 180 181 182 183 184 185 186 187 188 189 190 191 192 193 194 195 196 197 198 199 200 201 202 203 204 205 206 207 208 209 210 211 212 213 214 215 216 217 218 219 220 221 222 223 224 225 226 227 228 229 230 231 232 233 234 235 236 237 238 239 240 241 242 243 244 245 246 247 248 249 250 251 252 253 254 255 256 257 258 259 260 261 262 263 264 265 266 267 268 269 270 271 272 273 274 275 276 277 278 279 280 281 282 283 284 285 286 287 288 289 290 291 292 293 294 295 296 297 298 299 300 301 302 303 304 305 306 307 308 309 310 311 312 313 314 315 316 317 318 319 320 321 322 323 324 325 326 327 328 329 330 331 332 333 334 335 336 337 338 339 340 341 342 343 344 345 346 347 348 349 350 351 352 353 354 355 356 357 358 359 360 361 362 363 364 365 366 367 368 369 370 371 372 373 374 375 376 377 378 379 380 381 382 383 384 385 386 387 388 389 390 391 392 393 394 395 396 397 398 399 400 
Y_COORDINATES 100 double
1 2 3 4 5 6 7 8 9 10 11 12 13 14 15 16 17 18 19 20 21 22 23 24 25 26 27 28 29 30 31 32 33 34 35 36 37 38 39 40 41 42 43 44 45 46 47 48 49 50 51 52 53 54 55 56 57 58 59 60 61 62 63 64 65 66 67 68 69 70 71 72 73 74 75 76 77 78 79 80 81 82 83 84 85 86 87 88 89 90 91 92 93 94 95 96 97 98 99 100 
Z_COORDINATES 1 double
0
POINT_DATA 40000
SCALARS rho double 1
LOOKUP_TABLE default
0.477826 0.477821 0.477814 0.477807 0.477799 0.477792 0.477785 0.477779 0.477774 0.47777 0.477766 0.477763 0.47776 0.477758 0.477757 0.477756 0.477756 0.477756 0.477756 0.477757 0.477759 0.47776 0.477762 0.477764 0.477767 0.477769 0.477772 0.477775 0.477778 0.477781 0.477785 0.477788 0.477792 0.477795 0.477799 0.477802 0.477806 0.477809 0.477812 0.477816 0.477819 0.477822 0.477825 0.477828 0.477831 0.477833 0.477836 0.477838 0.47784 0.477842 0.477844 0.477845 0.477846 0.477847 0.477848 0.477849 0.477849 0.477849 0.477849 0.477848 0.477847 0.477846 0.477845 0.477843 0.477842 0.477839 0.477837 0.477834 0.477831 0.477828 0.477824 0.47782 0.477816 0.477812 0.477807 0.477802 0.477797 0.477791 0.477785 0.477779 0.477773 0.477767 0.47776 0.477753 0.477746 0.477738 0.477731 0.477723 0.477715 0.477707 0.477699 0.47769 0.477682 0.477673 0.477664 0.477655 0.477646 0.477637 0.477627 0.477618 0.477608 0.477599 0.477589 0.47758 0.47757 0.477561 0.477551 0.477542 0.477532 0.477523 0.477514 0.477505 0.477496 0.477487 0.477478 0.47747 0.477462 0.477455 0.477449 0.477443 0.477439 0.477436 0.477434 0.477435 0.47744 0.477448 0.477462 0.477483 0.477513 0.477555 0.477613 0.477694 0.477802 0.477949 0.478145 0.478409 0.478761 0.479231 0.479859 0.480695 0.48181 0.483296 0.485277 0.487917 0.491437 0.496131 0.502388 0.510729 0.521843 0.536639 0.5563 0.582349 0.616688 0.66159 0.719559 0.792945 0.883196 0.989728 1.10874 1.23279 1.35202 1.45703 1.54191 1.60544 1.65011 1.6801 1.69962 1.71208 1.71996 1.72492 1.72804 1.73002 1.73127 1.73206 1.73257 1.7329 1.73311 1.73325 1.73334 1.73341 1.73345 1.73348 1.7335 1.73351 1.73352 1.73353 1.73353 1.73354 1.73354 1.73354 1.73354 1.73355 1.73355 1.73355 1.73355 1.73355 1.73355 1.73355 1.73355 1.73355 1.73355 1.73355 1.73355 1.73355 1.73355 1.73355 1.73355 1.73355 1.73355 1.73355 1.73354 1.73354 1.73354 1.73353 1.73353 1.73352 1.7335 1.73348 1.73346 1.73341 1.73335 1.73326 1.73312 1.73291 1.73258 1.73207 1.73128 1.73003 1.72805 1.72493 1.71997 1.71208 1.69961 1.68009 1.65009 1.6054 1.54185 1.45695 1.35192 1.23268 1.10863 0.989626 0.883111 0.792879 0.719512 0.661561 0.616673 0.582346 0.556307 0.536653 0.521864 0.510754 0.502417 0.496162 0.491471 0.487953 0.485314 0.483334 0.481849 0.480734 0.479899 0.479272 0.478802 0.47845 0.478187 0.47799 0.477844 0.477736 0.477656 0.477598 0.477556 0.477526 0.477506 0.477492 0.477484 0.477481 0.47748 0.477482 0.477485 0.477491 0.477497 0.477504 0.477512 0.47752 0.477529 0.477538 0.477548 0.477557 0.477567 0.477578 0.477588 0.477598 0.477609 0.477619 0.47763 0.47764 0.477651 0.477662 0.477672 0.477683 0.477693 0.477704 0.477714 0.477725 0.477735 0.477745 0.477755 0.477765 0.477775 0.477785 0.477794 0.477803 0.477813 0.477822 0.477831 0.477839 0.477848 0.477856 0.477864 0.477872 0.477879 0.477887 0.477894 0.477901 0.477907 0.477914 0.47792 0.477925 0.477931 0.477936 0.477941 0.477946 0.47795 0.477954 0.477958 0.477962 0.477965 0.477968 0.477971 0.477973 0.477975 0.477977 0.477978 0.47798 0.477981 0.477981 0.477982 0.477982 0.477982 0.477982 0.477981 0.477981 0.47798 0.477979 0.477977 0.477976 0.477974 0.477972 0.47797 0.477968 0.477966 0.477964 0.477961 0.477959 0.477956 0.477954 0.477951 0.477948 0.477946 0.477943 0.47794 0.477938 0.477935 0.477933 0.477931 0.477929 0.477927 0.477925 0.477924 0.477922 0.477921 0.477921 0.47792 0.47792 0.477921 0.477922 0.477923 0.477925 0.477927 0.47793 0.477934 0.477938 0.477943 0.477948 0.477954 0.477961 0.477968 0.477975 0.477981 0.477986 0.468208 0.468204 0.468198 0.468192 0.468185 0.468178 0.468172 0.468166 0.468162 0.468157 0.468154 0.468151 0.468148 0.468146 0.468145 0.468144 0.468144 0.468144 0.468145 0.468146 0.468147 0.468149 0.46815 0.468153 0.468155 0.468157 0.46816 0.468163 0.468166 0.468169 0.468172 0.468176 0.468179 0.468183 0.468186 0.468189 0.468193 0.468196 0.468199 0.468203 0.468206 0.468209 0.468212 0.468214 0.468217 0.46822 0.468222 0.468224 0.468226 0.468228 0.46823 0.468231 0.468232 0.468233 0.468234 0.468234 0.468235 0.468235 0.468234 0.468234 0.468233 0.468232 0.468231 0.468229 0.468227 0.468225 0.468223 0.46822 0.468217 0.468214 0.46821 0.468207 0.468202 0.468198 0.468193 0.468189 0.468184 0.468178 0.468173 0.468167 0.468161 0.468154 0.468148 0.468141 0.468134 0.468127 0.468119 0.468112 0.468104 0.468096 0.468088 0.46808 0.468071 0.468063 0.468054 0.468046 0.468037 0.468028 0.468019 0.46801 0.468 0.467991 0.467982 0.467973 0.467963 0.467954 0.467945 0.467935 0.467926 0.467917 0.467908 0.467899 0.46789 0.467882 0.467874 0.467866 0.467858 0.467851 0.467845 0.467839 0.467835 0.467832 0.46783 0.467831 0.467835 0.467843 0.467856 0.467876 0.467905 0.467946 0.468002 0.468079 0.468184 0.468325 0.468514 0.468767 0.469106 0.469558 0.470161 0.470966 0.472038 0.473466 0.475369 0.477905 0.481285 0.485789 0.491791 0.499788 0.510436 0.5246 0.543408 0.568307 0.601105 0.643967 0.699291 0.769363 0.855683 0.957929 1.07283 1.19364 1.31115 1.41617 1.50245 1.56813 1.61505 1.64702 1.66809 1.68169 1.69037 1.69588 1.69938 1.70159 1.70301 1.70391 1.7045 1.70487 1.70512 1.70528 1.70539 1.70546 1.70551 1.70554 1.70557 1.70558 1.70559 1.7056 1.70561 1.70561 1.70562 1.70562 1.70562 1.70563 1.70563 1.70563 1.70563 1.70563 1.70563 1.70563 1.70563 1.70563 1.70563 1.70563 1.70563 1.70563 1.70563 1.70563 1.70563 1.70563 1.70563 1.70563 1.70562 1.70562 1.70561 1.70561 1.7056 1.70559 1.70557 1.70555 1.70552 1.70547 1.7054 1.70529 1.70513 1.70488 1.70451 1.70392 1.70302 1.7016 1.69938 1.69589 1.69038 1.6817 1.66809 1.64701 1.61503 1.56809 1.5024 1.41609 1.31106 1.19354 1.07272 0.957833 0.855603 0.769301 0.699247 0.64394 0.601091 0.568305 0.543415 0.524614 0.510456 0.499812 0.491819 0.48582 0.481318 0.47794 0.475405 0.473503 0.472075 0.471004 0.4702 0.469597 0.469145 0.468807 0.468554 0.468365 0.468224 0.46812 0.468043 0.467987 0.467947 0.467919 0.467899 0.467886 0.467879 0.467875 0.467875 0.467877 0.46788 0.467885 0.467891 0.467898 0.467906 0.467914 0.467923 0.467932 0.467941 0.467951 0.46796 0.46797 0.46798 0.46799 0.468 0.468011 0.468021 0.468031 0.468042 0.468052 0.468062 0.468073 0.468083 0.468093 0.468103 0.468113 0.468123 0.468133 0.468143 0.468153 0.468162 0.468172 0.468181 0.46819 0.468199 0.468208 0.468216 0.468225 0.468233 0.468241 0.468249 0.468257 0.468264 0.468271 0.468278 0.468285 0.468291 0.468297 0.468303 0.468309 0.468314 0.468319 0.468324 0.468329 0.468333 0.468337 0.468341 0.468344 0.468347 0.46835 0.468353 0.468355 0.468357 0.468359 0.46836 0.468362 0.468363 0.468363 0.468364 0.468364 0.468364 0.468364 0.468363 0.468363 0.468362 0.468361 0.46836 0.468358 0.468357 0.468355 0.468353 0.468351 0.468349 0.468346 0.468344 0.468342 0.468339 0.468337 0.468334 0.468331 0.468329 0.468326 0.468324 0.468321 0.468319 0.468317 0.468315 0.468313 0.468311 0.468309 0.468308 0.468306 0.468305 0.468305 0.468304 0.468305 0.468305 0.468306 0.468307 0.468309 0.468311 0.468314 0.468317 0.468321 0.468326 0.468331 0.468336 0.468343 0.468349 0.468355 0.46836 0.468364 0.460935 0.460933 0.460928 0.460923 0.460917 0.460911 0.460905 0.4609 0.460896 0.460892 0.460889 0.460886 0.460884 0.460882 0.460881 0.46088 0.46088 0.46088 0.460881 0.460882 0.460883 0.460885 0.460886 0.460888 0.460891 0.460893 0.460896 0.460899 0.460901 0.460905 0.460908 0.460911 0.460914 0.460917 0.460921 0.460924 0.460927 0.46093 0.460933 0.460937 0.46094 0.460943 0.460945 0.460948 0.460951 0.460953 0.460955 0.460957 0.460959 0.460961 0.460963 0.460964 0.460965 0.460966 0.460967 0.460967 0.460967 0.460967 0.460967 0.460967 0.460966 0.460965 0.460963 0.460962 0.46096 0.460958 0.460956 0.460953 0.46095 0.460947 0.460944 0.46094 0.460936 0.460932 0.460927 0.460922 0.460917 0.460912 0.460907 0.460901 0.460895 0.460889 0.460883 0.460876 0.460869 0.460862 0.460855 0.460848 0.46084 0.460832 0.460824 0.460817 0.460808 0.4608 0.460792 0.460783 0.460774 0.460766 0.460757 0.460748 0.460739 0.46073 0.460721 0.460712 0.460703 0.460694 0.460685 0.460676 0.460667 0.460658 0.460649 0.46064 0.460632 0.460624 0.460615 0.460608 0.4606 0.460593 0.460587 0.460582 0.460577 0.460574 0.460573 0.460573 0.460577 0.460584 0.460596 0.460615 0.460643 0.460681 0.460735 0.460808 0.460907 0.461041 0.461221 0.461463 0.461785 0.462215 0.462789 0.463554 0.464573 0.46593 0.467737 0.470144 0.473348 0.477615 0.483296 0.490856 0.50091 0.514267 0.531978 0.55539 0.586191 0.626404 0.678295 0.744088 0.825389 0.922283 1.03228 1.14969 1.26617 1.37281 1.4628 1.5332 1.58484 1.62085 1.64508 1.661 1.6713 1.67793 1.68218 1.6849 1.68665 1.68778 1.68852 1.689 1.68931 1.68952 1.68966 1.68975 1.68981 1.68986 1.68989 1.68991 1.68992 1.68993 1.68994 1.68995 1.68995 1.68996 1.68996 1.68996 1.68997 1.68997 1.68997 1.68997 1.68997 1.68997 1.68997 1.68997 1.68997 1.68997 1.68997 1.68997 1.68997 1.68997 1.68997 1.68997 1.68996 1.68996 1.68996 1.68995 1.68995 1.68994 1.68993 1.68991 1.68989 1.68986 1.68982 1.68976 1.68966 1.68953 1.68932 1.689 1.68853 1.68779 1.68666 1.68491 1.68219 1.67794 1.67131 1.661 1.64508 1.62084 1.58482 1.53316 1.46274 1.37274 1.26608 1.14959 1.03218 0.922196 0.825317 0.744033 0.678256 0.62638 0.586179 0.555389 0.531985 0.514281 0.50093 0.49088 0.483323 0.477645 0.47338 0.470177 0.467772 0.465966 0.464609 0.463591 0.462827 0.462253 0.461823 0.461501 0.46126 0.461081 0.460947 0.460848 0.460775 0.460722 0.460683 0.460656 0.460638 0.460626 0.460619 0.460616 0.460616 0.460618 0.460621 0.460626 0.460632 0.460639 0.460647 0.460655 0.460663 0.460672 0.460681 0.46069 0.4607 0.46071 0.460719 0.460729 0.460739 0.460749 0.460759 0.460769 0.460779 0.460789 0.460799 0.460809 0.460819 0.460829 0.460839 0.460849 0.460859 0.460868 0.460878 0.460887 0.460897 0.460906 0.460915 0.460924 0.460933 0.460941 0.460949 0.460958 0.460966 0.460974 0.460981 0.460989 0.460996 0.461003 0.461009 0.461016 0.461022 0.461028 0.461034 0.46104 0.461045 0.46105 0.461054 0.461059 0.461063 0.461067 0.461071 0.461074 0.461077 0.46108 0.461082 0.461085 0.461087 0.461089 0.46109 0.461091 0.461092 0.461093 0.461093 0.461094 0.461094 0.461094 0.461093 0.461093 0.461092 0.461091 0.461089 0.461088 0.461087 0.461085 0.461083 0.461081 0.461079 0.461077 0.461075 0.461072 0.46107 0.461067 0.461065 0.461062 0.46106 0.461058 0.461055 0.461053 0.46105 0.461048 0.461046 0.461044 0.461042 0.461041 0.461039 0.461038 0.461037 0.461037 0.461036 0.461036 0.461037 0.461037 0.461038 0.46104 0.461042 0.461045 0.461048 0.461051 0.461056 0.46106 0.461065 0.46107 0.461076 0.461081 0.461085 0.461087 0.455442 0.45544 0.455436 0.455432 0.455427 0.455422 0.455418 0.455413 0.455409 0.455406 0.455403 0.4554 0.455399 0.455397 0.455396 0.455396 0.455395 0.455396 0.455396 0.455397 0.455399 0.4554 0.455402 0.455404 0.455406 0.455408 0.455411 0.455414 0.455417 0.45542 0.455423 0.455426 0.455429 0.455432 0.455435 0.455438 0.455441 0.455444 0.455447 0.45545 0.455453 0.455456 0.455459 0.455461 0.455464 0.455466 0.455468 0.45547 0.455472 0.455474 0.455475 0.455477 0.455478 0.455479 0.455479 0.45548 0.45548 0.45548 0.45548 0.455479 0.455478 0.455477 0.455476 0.455474 0.455473 0.455471 0.455468 0.455466 0.455463 0.45546 0.455456 0.455453 0.455449 0.455445 0.45544 0.455436 0.455431 0.455426 0.45542 0.455415 0.455409 0.455403 0.455397 0.45539 0.455384 0.455377 0.45537 0.455363 0.455355 0.455348 0.45534 0.455332 0.455324 0.455316 0.455308 0.4553 0.455291 0.455283 0.455274 0.455265 0.455256 0.455248 0.455239 0.45523 0.455221 0.455212 0.455203 0.455195 0.455186 0.455177 0.455169 0.45516 0.455152 0.455144 0.455136 0.455128 0.455121 0.455114 0.455108 0.455102 0.455098 0.455094 0.455093 0.455093 0.455096 0.455103 0.455114 0.455132 0.455157 0.455194 0.455244 0.455313 0.455406 0.455533 0.455703 0.45593 0.456234 0.45664 0.457181 0.457902 0.458861 0.460138 0.461836 0.464096 0.467102 0.4711 0.476414 0.483476 0.492852 0.505286 0.521741 0.543453 0.571967 0.609151 0.657121 0.718026 0.793584 0.884324 0.988632 1.10202 1.21725 1.32586 1.42053 1.49708 1.55503 1.59662 1.6253 1.64453 1.65721 1.66548 1.67084 1.67432 1.67658 1.67806 1.67902 1.67965 1.68007 1.68035 1.68054 1.68067 1.68075 1.68081 1.68085 1.68088 1.6809 1.68092 1.68093 1.68094 1.68095 1.68095 1.68096 1.68096 1.68096 1.68096 1.68097 1.68097 1.68097 1.68097 1.68097 1.68097 1.68097 1.68097 1.68097 1.68097 1.68097 1.68097 1.68096 1.68096 1.68096 1.68096 1.68095 1.68095 1.68094 1.68093 1.68091 1.68089 1.68086 1.68082 1.68076 1.68067 1.68055 1.68036 1.68008 1.67966 1.67903 1.67807 1.6766 1.67434 1.67085 1.66549 1.65722 1.64454 1.6253 1.59661 1.55501 1.49704 1.42047 1.32579 1.21717 1.10193 0.988546 0.884248 0.793521 0.717978 0.657088 0.609131 0.571959 0.543453 0.521749 0.5053 0.492872 0.4835 0.476441 0.471129 0.467133 0.464128 0.46187 0.460172 0.458896 0.457938 0.457217 0.456677 0.456272 0.455968 0.455741 0.455571 0.455445 0.455352 0.455283 0.455233 0.455197 0.455172 0.455155 0.455144 0.455137 0.455135 0.455135 0.455137 0.455141 0.455146 0.455152 0.455159 0.455166 0.455174 0.455182 0.455191 0.4552 0.455209 0.455218 0.455228 0.455237 0.455247 0.455256 0.455266 0.455276 0.455286 0.455296 0.455306 0.455315 0.455325 0.455335 0.455345 0.455354 0.455364 0.455373 0.455383 0.455392 0.455401 0.45541 0.455419 0.455428 0.455437 0.455445 0.455454 0.455462 0.45547 0.455478 0.455485 0.455493 0.4555 0.455507 0.455514 0.45552 0.455527 0.455533 0.455539 0.455544 0.45555 0.455555 0.45556 0.455564 0.455569 0.455573 0.455577 0.45558 0.455584 0.455587 0.455589 0.455592 0.455594 0.455596 0.455598 0.455599 0.455601 0.455602 0.455602 0.455603 0.455603 0.455603 0.455603 0.455603 0.455602 0.455601 0.455601 0.455599 0.455598 0.455597 0.455595 0.455593 0.455591 0.455589 0.455587 0.455585 0.455583 0.455581 0.455578 0.455576 0.455574 0.455571 0.455569 0.455566 0.455564 0.455562 0.45556 0.455558 0.455556 0.455554 0.455553 0.455551 0.45555 0.455549 0.455549 0.455548 0.455548 0.455548 0.455549 0.45555 0.455551 0.455553 0.455555 0.455558 0.455561 0.455565 0.455569 0.455573 0.455578 0.455582 0.455586 0.455589 0.455591 0.451295 0.451293 0.451291 0.451288 0.451284 0.45128 0.451276 0.451272 0.451269 0.451266 0.451264 0.451262 0.45126 0.451259 0.451258 0.451258 0.451257 0.451258 0.451259 0.451259 0.451261 0.451262 0.451264 0.451266 0.451268 0.45127 0.451273 0.451276 0.451278 0.451281 0.451284 0.451287 0.45129 0.451293 0.451296 0.451299 0.451302 0.451305 0.451308 0.451311 0.451314 0.451316 0.451319 0.451322 0.451324 0.451326 0.451328 0.45133 0.451332 0.451333 0.451335 0.451336 0.451337 0.451338 0.451338 0.451339 0.451339 0.451339 0.451339 0.451338 0.451337 0.451336 0.451335 0.451333 0.451332 0.45133 0.451327 0.451325 0.451322 0.451319 0.451315 0.451312 0.451308 0.451304 0.4513 0.451295 0.45129 0.451285 0.45128 0.451275 0.451269 0.451263 0.451257 0.451251 0.451244 0.451238 0.451231 0.451224 0.451216 0.451209 0.451201 0.451194 0.451186 0.451178 0.45117 0.451162 0.451154 0.451145 0.451137 0.451128 0.45112 0.451111 0.451102 0.451094 0.451085 0.451076 0.451068 0.451059 0.45105 0.451042 0.451033 0.451025 0.451017 0.451009 0.451001 0.450994 0.450986 0.45098 0.450973 0.450968 0.450963 0.45096 0.450958 0.450958 0.45096 0.450967 0.450977 0.450993 0.451016 0.45105 0.451097 0.451162 0.451249 0.451367 0.451526 0.451739 0.452024 0.452404 0.452909 0.453582 0.454478 0.455669 0.457251 0.459354 0.462147 0.465855 0.470777 0.477304 0.485953 0.497397 0.512509 0.532405 0.558484 0.592444 0.636241 0.69193 0.761309 0.845314 0.943178 1.05165 1.16477 1.27481 1.37415 1.45748 1.52282 1.57124 1.60555 1.62911 1.64493 1.65542 1.66232 1.66685 1.66982 1.67177 1.67306 1.67392 1.67449 1.67487 1.67513 1.6753 1.67542 1.67551 1.67556 1.6756 1.67563 1.67566 1.67567 1.67568 1.67569 1.6757 1.6757 1.67571 1.67571 1.67572 1.67572 1.67572 1.67572 1.67572 1.67572 1.67572 1.67572 1.67572 1.67572 1.67572 1.67572 1.67572 1.67572 1.67571 1.67571 1.6757 1.6757 1.67569 1.67568 1.67566 1.67564 1.67561 1.67557 1.67551 1.67543 1.67531 1.67513 1.67488 1.6745 1.67393 1.67307 1.67178 1.66983 1.66686 1.66233 1.65543 1.64494 1.62911 1.60555 1.57123 1.5228 1.45744 1.3741 1.27474 1.1647 1.05157 0.943104 0.84525 0.761257 0.69189 0.636215 0.592429 0.558479 0.532408 0.512519 0.497413 0.485973 0.477328 0.470803 0.465883 0.462177 0.459385 0.457283 0.455702 0.454512 0.453617 0.452944 0.452439 0.45206 0.451776 0.451563 0.451404 0.451286 0.451199 0.451135 0.451088 0.451055 0.451032 0.451016 0.451006 0.451001 0.450998 0.450999 0.451001 0.451005 0.45101 0.451016 0.451023 0.451031 0.451038 0.451047 0.451055 0.451064 0.451073 0.451082 0.451091 0.4511 0.45111 0.451119 0.451129 0.451139 0.451148 0.451158 0.451168 0.451177 0.451187 0.451196 0.451206 0.451215 0.451225 0.451234 0.451243 0.451252 0.451261 0.45127 0.451279 0.451288 0.451296 0.451305 0.451313 0.451321 0.451329 0.451336 0.451344 0.451351 0.451358 0.451365 0.451372 0.451378 0.451384 0.45139 0.451396 0.451402 0.451407 0.451412 0.451417 0.451421 0.451426 0.45143 0.451433 0.451437 0.45144 0.451443 0.451446 0.451448 0.451451 0.451453 0.451454 0.451456 0.451457 0.451458 0.451459 0.45146 0.45146 0.45146 0.45146 0.45146 0.451459 0.451458 0.451457 0.451456 0.451455 0.451454 0.451452 0.451451 0.451449 0.451447 0.451445 0.451443 0.451441 0.451439 0.451436 0.451434 0.451432 0.45143 0.451427 0.451425 0.451423 0.451421 0.451419 0.451417 0.451415 0.451413 0.451412 0.45141 0.451409 0.451408 0.451407 0.451407 0.451407 0.451407 0.451407 0.451408 0.451409 0.451411 0.451413 0.451415 0.451418 0.451421 0.451424 0.451428 0.451432 0.451435 0.451438 0.45144 0.451442 0.448166 0.448165 0.448163 0.448161 0.448158 0.448155 0.448152 0.448149 0.448146 0.448144 0.448142 0.44814 0.448139 0.448138 0.448137 0.448137 0.448137 0.448137 0.448138 0.448139 0.44814 0.448142 0.448144 0.448146 0.448148 0.44815 0.448152 0.448155 0.448158 0.44816 0.448163 0.448166 0.448169 0.448172 0.448175 0.448178 0.448181 0.448184 0.448186 0.448189 0.448192 0.448194 0.448197 0.448199 0.448202 0.448204 0.448206 0.448208 0.448209 0.448211 0.448212 0.448213 0.448214 0.448215 0.448215 0.448216 0.448216 0.448216 0.448215 0.448215 0.448214 0.448213 0.448211 0.44821 0.448208 0.448206 0.448204 0.448201 0.448198 0.448195 0.448192 0.448189 0.448185 0.448181 0.448177 0.448172 0.448167 0.448163 0.448157 0.448152 0.448146 0.448141 0.448135 0.448128 0.448122 0.448115 0.448109 0.448102 0.448095 0.448087 0.44808 0.448072 0.448065 0.448057 0.448049 0.448041 0.448033 0.448025 0.448016 0.448008 0.448 0.447991 0.447983 0.447974 0.447966 0.447957 0.447949 0.44794 0.447932 0.447923 0.447915 0.447907 0.447898 0.447891 0.447883 0.447875 0.447868 0.447861 0.447855 0.44785 0.447845 0.447841 0.447839 0.447839 0.447841 0.447846 0.447855 0.44787 0.447891 0.447922 0.447966 0.448025 0.448107 0.448217 0.448364 0.448562 0.448827 0.449179 0.449649 0.450273 0.451102 0.452204 0.453666 0.455607 0.45818 0.46159 0.466106 0.472083 0.479985 0.490414 0.504152 0.522196 0.545796 0.576481 0.616037 0.6664 0.729403 0.806298 0.897065 0.999629 1.10941 1.21966 1.32291 1.41292 1.48624 1.54249 1.58359 1.61254 1.6324 1.6458 1.65474 1.66068 1.66462 1.66723 1.66897 1.67014 1.67092 1.67144 1.6718 1.67205 1.67221 1.67233 1.67242 1.67247 1.67252 1.67255 1.67257 1.67259 1.6726 1.67261 1.67262 1.67262 1.67263 1.67263 1.67263 1.67263 1.67264 1.67264 1.67264 1.67264 1.67264 1.67264 1.67264 1.67264 1.67263 1.67263 1.67263 1.67263 1.67262 1.67261 1.6726 1.67259 1.67257 1.67255 1.67252 1.67248 1.67242 1.67234 1.67222 1.67205 1.67181 1.67145 1.67093 1.67015 1.66898 1.66725 1.66463 1.66069 1.65475 1.64581 1.63241 1.61255 1.58359 1.54248 1.48622 1.41289 1.32287 1.2196 1.10934 0.999564 0.897003 0.806246 0.72936 0.666369 0.616017 0.576471 0.545794 0.522201 0.504163 0.49043 0.480005 0.472106 0.466132 0.461617 0.458209 0.455637 0.453698 0.452237 0.451135 0.450307 0.449683 0.449214 0.448862 0.448598 0.4484 0.448253 0.448143 0.448062 0.448003 0.44796 0.447929 0.447908 0.447893 0.447884 0.44788 0.447878 0.447879 0.447882 0.447886 0.447891 0.447897 0.447904 0.447911 0.447919 0.447927 0.447936 0.447944 0.447953 0.447962 0.447971 0.44798 0.44799 0.447999 0.448009 0.448018 0.448028 0.448037 0.448046 0.448056 0.448065 0.448075 0.448084 0.448093 0.448103 0.448112 0.448121 0.44813 0.448139 0.448147 0.448156 0.448164 0.448173 0.448181 0.448189 0.448197 0.448205 0.448212 0.44822 0.448227 0.448234 0.44824 0.448247 0.448253 0.44826 0.448265 0.448271 0.448277 0.448282 0.448287 0.448292 0.448296 0.4483 0.448304 0.448308 0.448311 0.448315 0.448318 0.44832 0.448323 0.448325 0.448327 0.448329 0.44833 0.448332 0.448333 0.448334 0.448334 0.448335 0.448335 0.448335 0.448334 0.448334 0.448333 0.448333 0.448332 0.44833 0.448329 0.448328 0.448326 0.448324 0.448323 0.448321 0.448319 0.448317 0.448315 0.448313 0.44831 0.448308 0.448306 0.448304 0.448302 0.4483 0.448297 0.448295 0.448294 0.448292 0.44829 0.448289 0.448287 0.448286 0.448285 0.448284 0.448284 0.448284 0.448284 0.448284 0.448285 0.448286 0.448287 0.448288 0.44829 0.448293 0.448295 0.448298 0.448301 0.448303 0.448306 0.448308 0.44831 0.448311 0.445806 0.445805 0.445804 0.445802 0.4458 0.445798 0.445796 0.445793 0.445791 0.445789 0.445788 0.445786 0.445785 0.445785 0.445784 0.445784 0.445785 0.445785 0.445786 0.445787 0.445788 0.44579 0.445792 0.445794 0.445796 0.445798 0.4458 0.445803 0.445805 0.445808 0.445811 0.445814 0.445816 0.445819 0.445822 0.445825 0.445828 0.44583 0.445833 0.445836 0.445838 0.445841 0.445843 0.445845 0.445848 0.44585 0.445851 0.445853 0.445855 0.445856 0.445857 0.445859 0.445859 0.44586 0.44586 0.445861 0.445861 0.445861 0.44586 0.44586 0.445859 0.445858 0.445856 0.445855 0.445853 0.445851 0.445849 0.445846 0.445843 0.44584 0.445837 0.445833 0.44583 0.445826 0.445822 0.445817 0.445812 0.445808 0.445802 0.445797 0.445792 0.445786 0.44578 0.445774 0.445768 0.445761 0.445754 0.445748 0.445741 0.445734 0.445726 0.445719 0.445711 0.445704 0.445696 0.445688 0.44568 0.445672 0.445664 0.445655 0.445647 0.445639 0.44563 0.445622 0.445613 0.445605 0.445597 0.445588 0.44558 0.445572 0.445563 0.445555 0.445547 0.445539 0.445531 0.445524 0.445517 0.44551 0.445504 0.445498 0.445493 0.445489 0.445487 0.445486 0.445487 0.445492 0.4455 0.445513 0.445533 0.445561 0.445601 0.445656 0.445731 0.445832 0.445968 0.446151 0.446395 0.446721 0.447153 0.447728 0.448491 0.449503 0.450845 0.452621 0.454973 0.458083 0.462194 0.467621 0.474777 0.484198 0.496575 0.512789 0.533949 0.561415 0.596798 0.641897 0.698519 0.768135 0.851317 0.947039 1.05207 1.16092 1.26665 1.36256 1.44387 1.50865 1.55761 1.5931 1.61802 1.63516 1.64679 1.65461 1.65986 1.66337 1.66573 1.66732 1.6684 1.66913 1.66963 1.66997 1.67021 1.67038 1.6705 1.67058 1.67064 1.67069 1.67072 1.67074 1.67076 1.67077 1.67078 1.67079 1.6708 1.6708 1.67081 1.67081 1.67081 1.67081 1.67082 1.67082 1.67082 1.67082 1.67081 1.67081 1.67081 1.67081 1.6708 1.6708 1.67079 1.67078 1.67076 1.67075 1.67072 1.67069 1.67065 1.67059 1.6705 1.67039 1.67022 1.66998 1.66964 1.66914 1.66841 1.66733 1.66574 1.66338 1.65987 1.65462 1.6468 1.63518 1.61803 1.59311 1.55762 1.50865 1.44386 1.36254 1.26661 1.16087 1.05202 0.946987 0.851269 0.768095 0.698487 0.641875 0.596785 0.56141 0.533951 0.512797 0.496587 0.484215 0.474797 0.467644 0.462219 0.45811 0.455001 0.452651 0.450875 0.449535 0.448523 0.447761 0.447186 0.446754 0.446429 0.446186 0.446003 0.445867 0.445766 0.445691 0.445637 0.445597 0.445569 0.44555 0.445537 0.445529 0.445526 0.445525 0.445526 0.445529 0.445533 0.445539 0.445545 0.445552 0.445559 0.445567 0.445575 0.445583 0.445592 0.445601 0.44561 0.445619 0.445628 0.445637 0.445646 0.445656 0.445665 0.445674 0.445683 0.445693 0.445702 0.445712 0.445721 0.44573 0.445739 0.445748 0.445757 0.445766 0.445775 0.445784 0.445792 0.445801 0.445809 0.445817 0.445826 0.445833 0.445841 0.445849 0.445856 0.445864 0.445871 0.445878 0.445884 0.445891 0.445897 0.445903 0.445909 0.445914 0.44592 0.445925 0.44593 0.445935 0.445939 0.445943 0.445947 0.445951 0.445954 0.445958 0.445961 0.445963 0.445966 0.445968 0.44597 0.445972 0.445973 0.445975 0.445976 0.445977 0.445977 0.445978 0.445978 0.445978 0.445978 0.445978 0.445977 0.445976 0.445975 0.445974 0.445973 0.445972 0.44597 0.445969 0.445967 0.445965 0.445963 0.445961 0.445959 0.445957 0.445955 0.445953 0.445951 0.445949 0.445947 0.445945 0.445943 0.445941 0.445939 0.445937 0.445936 0.445934 0.445933 0.445932 0.445931 0.44593 0.445929 0.445929 0.445929 0.445929 0.44593 0.44593 0.445931 0.445932 0.445934 0.445936 0.445938 0.44594 0.445942 0.445944 0.445946 0.445947 0.445948 0.445949 0.444026 0.444026 0.444025 0.444024 0.444023 0.444021 0.444019 0.444018 0.444016 0.444015 0.444014 0.444013 0.444012 0.444012 0.444011 0.444012 0.444012 0.444013 0.444014 0.444015 0.444016 0.444018 0.444019 0.444021 0.444023 0.444026 0.444028 0.44403 0.444033 0.444035 0.444038 0.444041 0.444043 0.444046 0.444049 0.444052 0.444054 0.444057 0.444059 0.444062 0.444064 0.444067 0.444069 0.444071 0.444073 0.444075 0.444077 0.444079 0.44408 0.444082 0.444083 0.444084 0.444084 0.444085 0.444085 0.444086 0.444086 0.444085 0.444085 0.444084 0.444083 0.444082 0.444081 0.444079 0.444077 0.444075 0.444073 0.44407 0.444068 0.444065 0.444061 0.444058 0.444054 0.44405 0.444046 0.444042 0.444037 0.444032 0.444027 0.444022 0.444016 0.444011 0.444005 0.443999 0.443992 0.443986 0.443979 0.443973 0.443966 0.443959 0.443951 0.443944 0.443937 0.443929 0.443921 0.443914 0.443906 0.443898 0.44389 0.443881 0.443873 0.443865 0.443857 0.443848 0.44384 0.443832 0.443823 0.443815 0.443807 0.443798 0.44379 0.443782 0.443774 0.443766 0.443759 0.443751 0.443744 0.443737 0.443731 0.443725 0.44372 0.443716 0.443713 0.443712 0.443712 0.443716 0.443723 0.443734 0.443752 0.443778 0.443814 0.443864 0.443933 0.444026 0.444151 0.444319 0.444543 0.444841 0.445237 0.445763 0.446461 0.447384 0.448606 0.450222 0.452355 0.455171 0.458884 0.463774 0.470204 0.478646 0.489707 0.504159 0.522975 0.547354 0.578733 0.618755 0.669153 0.731511 0.806831 0.894944 0.993872 1.09948 1.20579 1.30614 1.39481 1.46836 1.52604 1.56919 1.60034 1.62223 1.63735 1.64767 1.65468 1.65942 1.66264 1.66482 1.66631 1.66733 1.66803 1.66852 1.66886 1.6691 1.66927 1.66939 1.66948 1.66954 1.66959 1.66963 1.66965 1.66967 1.66969 1.6697 1.66971 1.66971 1.66972 1.66972 1.66973 1.66973 1.66973 1.66973 1.66973 1.66973 1.66973 1.66973 1.66972 1.66972 1.66971 1.6697 1.66969 1.66968 1.66966 1.66963 1.6696 1.66955 1.66949 1.6694 1.66928 1.66911 1.66887 1.66853 1.66804 1.66734 1.66632 1.66483 1.66265 1.65944 1.65469 1.64768 1.63736 1.62225 1.60035 1.56921 1.52605 1.46837 1.3948 1.30613 1.20577 1.09945 0.993834 0.894905 0.806796 0.731482 0.669131 0.61874 0.578725 0.547353 0.52298 0.504169 0.489721 0.478664 0.470224 0.463797 0.458909 0.455198 0.452383 0.450251 0.448636 0.447415 0.446492 0.445795 0.44527 0.444874 0.444576 0.444352 0.444185 0.44406 0.443967 0.443899 0.443849 0.443813 0.443788 0.443771 0.443759 0.443753 0.44375 0.44375 0.443751 0.443755 0.443759 0.443765 0.443771 0.443778 0.443785 0.443793 0.443801 0.44381 0.443818 0.443827 0.443836 0.443845 0.443854 0.443863 0.443872 0.443881 0.44389 0.4439 0.443909 0.443918 0.443927 0.443937 0.443946 0.443955 0.443964 0.443973 0.443982 0.443991 0.443999 0.444008 0.444017 0.444025 0.444033 0.444041 0.444049 0.444057 0.444065 0.444073 0.44408 0.444087 0.444094 0.444101 0.444108 0.444114 0.44412 0.444126 0.444132 0.444138 0.444143 0.444148 0.444153 0.444158 0.444162 0.444166 0.44417 0.444174 0.444177 0.444181 0.444184 0.444186 0.444189 0.444191 0.444193 0.444195 0.444197 0.444198 0.444199 0.4442 0.444201 0.444201 0.444201 0.444202 0.444201 0.444201 0.444201 0.4442 0.444199 0.444198 0.444197 0.444196 0.444195 0.444193 0.444192 0.44419 0.444188 0.444186 0.444184 0.444182 0.44418 0.444178 0.444176 0.444174 0.444172 0.44417 0.444169 0.444167 0.444165 0.444163 0.444162 0.44416 0.444159 0.444158 0.444157 0.444156 0.444155 0.444155 0.444154 0.444154 0.444155 0.444155 0.444156 0.444157 0.444158 0.444159 0.44416 0.444162 0.444163 0.444165 0.444166 0.444167 0.444168 0.444168 0.442684 0.442684 0.442684 0.442683 0.442682 0.442681 0.44268 0.442679 0.442678 0.442677 0.442677 0.442676 0.442676 0.442676 0.442676 0.442676 0.442677 0.442677 0.44267