# vtk DataFile Version 3.0
Immiscible displacement
ASCII
DATASET RECTILINEAR_GRID
DIMENSIONS 400 100 1
X_COORDINATES 400 double
1 2 3 4 5 6 7 8 9 10 11 12 13 14 15 16 17 18 19 20 21 22 23 24 25 26 27 28 29 30 31 32 33 34 35 36 37 38 39 40 41 42 43 44 45 46 47 48 49 50 51 52 53 54 55 56 57 58 59 60 61 62 63 64 65 66 67 68 69 70 71 72 73 74 75 76 77 78 79 80 81 82 83 84 85 86 87 88 89 90 91 92 93 94 95 96 97 98 99 100 101 102 103 104 105 106 107 108 109 110 111 112 113 114 115 116 117 118 119 120 121 122 123 124 125 126 127 128 129 130 131 132 133 134 135 136 137 138 139 140 141 142 143 144 145 146 147 148 149 150 151 152 153 154 155 156 157 158 159 160 161 162 163 164 165 166 167 168 169 170 171 172 173 174 175 176 177 178 179 180 181 182 183 184 185 186 187 188 189 190 191 192 193 194 195 196 197 198 199 200 201 202 203 204 205 206 207 208 209 210 211 212 213 214 215 216 217 218 219 220 221 222 223 224 225 226 227 228 229 230 231 232 233 234 235 236 237 238 239 240 241 242 243 244 245 246 247 248 249 250 251 252 253 254 255 256 257 258 259 260 261 262 263 264 265 266 267 268 269 270 271 272 273 274 275 276 277 278 279 280 281 282 283 284 285 286 287 288 289 290 291 292 293 294 295 296 297 298 299 300 301 302 303 304 305 306 307 308 309 310 311 312 313 314 315 316 317 318 319 320 321 322 323 324 325 326 327 328 329 330 331 332 333 334 335 336 337 338 339 340 341 342 343 344 345 346 347 348 349 350 351 352 353 354 355 356 357 358 359 360 361 362 363 364 365 366 367 368 369 370 371 372 373 374 375 376 377 378 379 380 381 382 383 384 385 386 387 388 389 390 391 392 393 394 395 396 397 398 399 400 
Y_COORDINATES 100 double
1 2 3 4 5 6 7 8 9 10 11 12 13 14 15 16 17 18 19 20 21 22 23 24 25 26 27 28 29 30 31 32 33 34 35 36 37 38 39 40 41 42 43 44 45 46 47 48 49 50 51 52 53 54 55 56 57 58 59 60 61 62 63 64 65 66 67 68 69 70 71 72 73 74 75 76 77 78 79 80 81 82 83 84 85 86 87 88 89 90 91 92 93 94 95 96 97 98 99 100 
Z_COORDINATES 1 double
0
POINT_DATA 40000
SCALARS rho double 1
LOOKUP_TABLE default
0.468612 0.468636 0.468666 0.468691 0.468707 0.468708 0.468694 0.468662 0.468614 0.468548 0.468466 0.468368 0.468255 0.468129 0.467991 0.467841 0.467682 0.467515 0.46734 0.467159 0.466974 0.466786 0.466595 0.466404 0.466213 0.466024 0.465837 0.465654 0.465476 0.465304 0.465138 0.464979 0.464829 0.464688 0.464557 0.464436 0.464327 0.464228 0.464142 0.464068 0.464006 0.463958 0.463923 0.4639 0.463892 0.463896 0.463914 0.463945 0.463989 0.464046 0.464116 0.464197 0.464291 0.464396 0.464512 0.464639 0.464776 0.464922 0.465078 0.465242 0.465414 0.465593 0.465779 0.465971 0.466169 0.466372 0.466579 0.466789 0.467003 0.467219 0.467438 0.467657 0.467879 0.4681 0.468322 0.468543 0.468763 0.468982 0.4692 0.469416 0.46963 0.469841 0.470051 0.470256 0.47046 0.470659 0.470856 0.471049 0.471238 0.471423 0.471605 0.471783 0.471957 0.472127 0.472293 0.472454 0.472611 0.472764 0.472912 0.473056 0.473195 0.473329 0.473458 0.473582 0.4737 0.473813 0.473921 0.474022 0.474118 0.474207 0.47429 0.474365 0.474434 0.474496 0.47455 0.474597 0.474636 0.474667 0.474691 0.474707 0.474715 0.474716 0.47471 0.474698 0.474681 0.47466 0.474636 0.474611 0.474589 0.474572 0.474566 0.474577 0.474612 0.474683 0.474803 0.47499 0.475269 0.475671 0.476239 0.477029 0.478116 0.4796 0.481613 0.484333 0.487996 0.492919 0.499524 0.508373 0.520212 0.536025 0.557097 0.585075 0.622008 0.670315 0.732593 0.811138 0.907048 1.01898 1.14199 1.26749 1.38508 1.48583 1.56506 1.62289 1.66268 1.68895 1.70581 1.71648 1.72319 1.72741 1.73009 1.73181 1.73293 1.7337 1.73423 1.73462 1.73492 1.73516 1.73537 1.73555 1.73571 1.73587 1.73601 1.73614 1.73627 1.73639 1.7365 1.7366 1.7367 1.73679 1.73687 1.73694 1.73701 1.73707 1.73711 1.73715 1.73718 1.73721 1.73722 1.73723 1.73722 1.73721 1.73718 1.73715 1.73711 1.73707 1.73701 1.73694 1.73687 1.73679 1.7367 1.7366 1.7365 1.73639 1.73627 1.73614 1.73601 1.73587 1.73571 1.73555 1.73537 1.73516 1.73492 1.73462 1.73423 1.7337 1.73293 1.73181 1.73009 1.72741 1.72319 1.71648 1.70581 1.68895 1.66268 1.62289 1.56506 1.48583 1.38508 1.26749 1.14199 1.01898 0.907049 0.811139 0.732595 0.670317 0.62201 0.585077 0.557099 0.536027 0.520214 0.508375 0.499526 0.492922 0.487998 0.484335 0.481615 0.479602 0.478118 0.477032 0.476241 0.475673 0.475271 0.474992 0.474805 0.474685 0.474615 0.474579 0.474568 0.474574 0.474591 0.474613 0.474637 0.474661 0.474682 0.4747 0.474711 0.474717 0.474716 0.474707 0.474691 0.474667 0.474636 0.474597 0.47455 0.474495 0.474433 0.474364 0.474288 0.474205 0.474116 0.47402 0.473919 0.473811 0.473698 0.473579 0.473455 0.473325 0.473191 0.473052 0.472908 0.472759 0.472606 0.472449 0.472287 0.472121 0.471951 0.471777 0.471599 0.471416 0.47123 0.47104 0.470847 0.47065 0.47045 0.470246 0.470039 0.469829 0.469617 0.469402 0.469185 0.468965 0.468745 0.468523 0.4683 0.468076 0.467853 0.46763 0.467407 0.467186 0.466967 0.46675 0.466536 0.466325 0.466119 0.465916 0.46572 0.465529 0.465344 0.465166 0.464996 0.464834 0.464681 0.464537 0.464403 0.464279 0.464166 0.464064 0.463974 0.463895 0.463829 0.463775 0.463735 0.463707 0.463692 0.463691 0.463702 0.463727 0.463765 0.463816 0.46388 0.463956 0.464044 0.464143 0.464255 0.464376 0.464508 0.464649 0.464799 0.464957 0.465123 0.465294 0.465472 0.465653 0.465838 0.466026 0.466215 0.466404 0.466592 0.466778 0.46696 0.467138 0.46731 0.467475 0.467631 0.467777 0.467912 0.468035 0.468145 0.468239 0.468318 0.46838 0.468425 0.468453 0.468463 0.468458 0.468438 0.468409 0.468375 0.468348 0.459272 0.459289 0.459312 0.459333 0.459344 0.459342 0.459326 0.459294 0.459246 0.459181 0.459101 0.459005 0.458896 0.458774 0.458639 0.458494 0.45834 0.458177 0.458008 0.457833 0.457654 0.457471 0.457287 0.457101 0.456917 0.456733 0.456552 0.456375 0.456203 0.456035 0.455875 0.455721 0.455576 0.45544 0.455313 0.455196 0.45509 0.454994 0.454911 0.454839 0.45478 0.454733 0.4547 0.454678 0.45467 0.454674 0.454692 0.454722 0.454766 0.454821 0.454889 0.454968 0.455059 0.455161 0.455274 0.455397 0.455531 0.455672 0.455824 0.455983 0.45615 0.456324 0.456505 0.456691 0.456883 0.457079 0.45728 0.457484 0.457692 0.457901 0.458113 0.458326 0.458541 0.458755 0.45897 0.459184 0.459398 0.45961 0.459822 0.460031 0.460239 0.460443 0.460646 0.460846 0.461043 0.461236 0.461427 0.461614 0.461798 0.461977 0.462154 0.462326 0.462495 0.462659 0.46282 0.462976 0.463128 0.463276 0.46342 0.463558 0.463693 0.463823 0.463948 0.464067 0.464183 0.464292 0.464396 0.464494 0.464586 0.464672 0.464752 0.464824 0.464891 0.46495 0.465002 0.465047 0.465084 0.465114 0.465136 0.465151 0.465158 0.465159 0.465153 0.46514 0.465123 0.465102 0.465078 0.465053 0.465031 0.465014 0.465008 0.465017 0.465051 0.465118 0.465232 0.465412 0.46568 0.466067 0.466613 0.467373 0.468418 0.469845 0.47178 0.474395 0.477916 0.482645 0.488987 0.497481 0.508836 0.523995 0.54418 0.570964 0.606297 0.652493 0.712049 0.787222 0.879204 0.986973 1.10617 1.22891 1.34532 1.44649 1.5273 1.58721 1.62903 1.65698 1.67513 1.68671 1.69404 1.69868 1.70164 1.70354 1.70478 1.70563 1.70621 1.70664 1.70696 1.70722 1.70744 1.70763 1.7078 1.70796 1.7081 1.70824 1.70836 1.70849 1.7086 1.70871 1.7088 1.7089 1.70898 1.70905 1.70912 1.70918 1.70922 1.70927 1.7093 1.70932 1.70933 1.70934 1.70933 1.70932 1.7093 1.70927 1.70922 1.70918 1.70912 1.70905 1.70898 1.7089 1.7088 1.70871 1.7086 1.70849 1.70836 1.70824 1.7081 1.70796 1.7078 1.70763 1.70744 1.70722 1.70696 1.70664 1.70621 1.70563 1.70478 1.70354 1.70164 1.69868 1.69404 1.68671 1.67513 1.65698 1.62903 1.58721 1.5273 1.44649 1.34532 1.22891 1.10617 0.986975 0.879206 0.787223 0.71205 0.652494 0.606298 0.570966 0.544182 0.523997 0.508838 0.497483 0.488989 0.482648 0.477918 0.474398 0.471783 0.469847 0.46842 0.467375 0.466615 0.466069 0.465682 0.465414 0.465235 0.46512 0.465053 0.465019 0.46501 0.465016 0.465033 0.465055 0.465079 0.465103 0.465124 0.465141 0.465154 0.46516 0.465159 0.465151 0.465136 0.465114 0.465084 0.465046 0.465002 0.464949 0.46489 0.464823 0.46475 0.46467 0.464584 0.464492 0.464394 0.464289 0.46418 0.464065 0.463945 0.463819 0.46369 0.463555 0.463416 0.463271 0.463124 0.462971 0.462814 0.462653 0.462489 0.462319 0.462147 0.46197 0.46179 0.461606 0.461419 0.461227 0.461033 0.460835 0.460635 0.460431 0.460226 0.460017 0.459807 0.459594 0.45938 0.459165 0.458949 0.458732 0.458516 0.458299 0.458083 0.457868 0.457656 0.457445 0.457238 0.457033 0.456833 0.456637 0.456446 0.45626 0.456081 0.455909 0.455744 0.455586 0.455438 0.455297 0.455168 0.455047 0.454937 0.454838 0.45475 0.454673 0.454609 0.454557 0.454517 0.454489 0.454475 0.454473 0.454485 0.454508 0.454545 0.454594 0.454655 0.454728 0.454814 0.45491 0.455018 0.455135 0.455263 0.4554 0.455546 0.455698 0.455859 0.456025 0.456197 0.456372 0.456552 0.456733 0.456917 0.4571 0.457282 0.457462 0.457639 0.457811 0.457978 0.458138 0.45829 0.458431 0.458563 0.458682 0.458789 0.458881 0.458958 0.459019 0.459064 0.459093 0.459105 0.459103 0.459088 0.459064 0.459038 0.459019 0.452279 0.45229 0.452305 0.452318 0.452323 0.452317 0.452298 0.452264 0.452215 0.452151 0.452072 0.451979 0.451872 0.451753 0.451623 0.451482 0.451333 0.451176 0.451012 0.450842 0.450669 0.450493 0.450315 0.450135 0.449957 0.44978 0.449605 0.449434 0.449267 0.449106 0.448951 0.448803 0.448663 0.448531 0.448409 0.448296 0.448194 0.448102 0.448022 0.447953 0.447896 0.447851 0.447819 0.447799 0.447792 0.447796 0.447814 0.447844 0.447886 0.44794 0.448006 0.448083 0.448172 0.448271 0.448381 0.4485 0.448629 0.448767 0.448914 0.449068 0.44923 0.449398 0.449573 0.449753 0.44994 0.450129 0.450324 0.450521 0.450722 0.450925 0.45113 0.451336 0.451544 0.451751 0.451959 0.452166 0.452373 0.452578 0.452783 0.452985 0.453186 0.453384 0.45358 0.453772 0.453963 0.45415 0.454334 0.454514 0.454692 0.454866 0.455036 0.455202 0.455366 0.455524 0.455679 0.45583 0.455977 0.45612 0.456258 0.456392 0.456522 0.456647 0.456768 0.456883 0.456993 0.457098 0.457198 0.457292 0.457381 0.457463 0.457539 0.457609 0.457672 0.457728 0.457778 0.45782 0.457855 0.457883 0.457903 0.457916 0.457922 0.457922 0.457914 0.457902 0.457884 0.457862 0.457837 0.457813 0.45779 0.457772 0.457765 0.457772 0.457802 0.457865 0.457973 0.458143 0.458397 0.458764 0.459283 0.460006 0.461 0.462357 0.464197 0.466682 0.470026 0.474515 0.48053 0.488577 0.499325 0.513656 0.532715 0.557974 0.591262 0.634756 0.690839 0.761742 0.848832 0.951584 1.06649 1.18669 1.30298 1.40648 1.49126 1.55571 1.60176 1.63316 1.6539 1.66732 1.67591 1.6814 1.68491 1.68718 1.68867 1.68967 1.69036 1.69086 1.69123 1.69152 1.69176 1.69197 1.69215 1.69232 1.69247 1.69262 1.69275 1.69287 1.69299 1.6931 1.6932 1.6933 1.69338 1.69346 1.69353 1.69359 1.69364 1.69368 1.69371 1.69374 1.69375 1.69375 1.69375 1.69374 1.69371 1.69368 1.69364 1.69359 1.69353 1.69346 1.69338 1.6933 1.6932 1.6931 1.69299 1.69287 1.69275 1.69262 1.69247 1.69232 1.69215 1.69197 1.69176 1.69152 1.69123 1.69086 1.69036 1.68967 1.68867 1.68718 1.68491 1.6814 1.67591 1.66732 1.6539 1.63316 1.60176 1.55571 1.49126 1.40648 1.30299 1.18669 1.06649 0.951585 0.848834 0.761744 0.690841 0.634757 0.591263 0.557976 0.532717 0.513657 0.499326 0.488579 0.480532 0.474517 0.470028 0.466684 0.464199 0.46236 0.461002 0.460008 0.459285 0.458766 0.458399 0.458145 0.457975 0.457867 0.457804 0.457774 0.457766 0.457774 0.457791 0.457814 0.457839 0.457863 0.457885 0.457903 0.457915 0.457922 0.457923 0.457917 0.457903 0.457883 0.457855 0.45782 0.457777 0.457728 0.457671 0.457608 0.457538 0.457461 0.457379 0.45729 0.457196 0.457096 0.456991 0.45688 0.456765 0.456644 0.456519 0.456388 0.456254 0.456115 0.455973 0.455825 0.455674 0.455518 0.45536 0.455196 0.45503 0.454859 0.454685 0.454507 0.454326 0.454141 0.453953 0.453762 0.453569 0.453372 0.453173 0.452971 0.452768 0.452562 0.452356 0.452147 0.451938 0.451728 0.451519 0.451309 0.451101 0.450893 0.450687 0.450483 0.450283 0.450084 0.44989 0.4497 0.449516 0.449335 0.449162 0.448994 0.448835 0.448682 0.448538 0.448402 0.448276 0.448158 0.448052 0.447955 0.44787 0.447795 0.447732 0.447681 0.447642 0.447615 0.4476 0.447598 0.447608 0.447631 0.447666 0.447712 0.447772 0.447842 0.447924 0.448017 0.448121 0.448234 0.448357 0.448489 0.44863 0.448777 0.448932 0.449093 0.449259 0.449429 0.449602 0.449778 0.449955 0.450132 0.450308 0.450482 0.450653 0.45082 0.450982 0.451136 0.451283 0.451421 0.451548 0.451664 0.451768 0.451858 0.451935 0.451996 0.452042 0.452072 0.452088 0.452091 0.452082 0.452067 0.452049 0.452037 0.447049 0.447055 0.447063 0.447069 0.447068 0.447056 0.447033 0.446996 0.446946 0.446881 0.446803 0.446711 0.446607 0.446491 0.446365 0.446228 0.446084 0.445931 0.445773 0.445609 0.445442 0.445271 0.445099 0.444926 0.444754 0.444583 0.444415 0.444249 0.444089 0.443933 0.443784 0.443641 0.443506 0.443379 0.443262 0.443153 0.443055 0.442967 0.44289 0.442824 0.44277 0.442727 0.442696 0.442677 0.442671 0.442676 0.442694 0.442723 0.442765 0.442817 0.442882 0.442957 0.443044 0.44314 0.443247 0.443362 0.443488 0.443621 0.443764 0.443913 0.44407 0.444233 0.444403 0.444577 0.444757 0.444941 0.445129 0.44532 0.445515 0.44571 0.445909 0.446108 0.446309 0.446509 0.44671 0.44691 0.44711 0.447308 0.447505 0.4477 0.447894 0.448085 0.448274 0.44846 0.448644 0.448824 0.449002 0.449176 0.449348 0.449515 0.449679 0.449839 0.449997 0.450149 0.450299 0.450444 0.450586 0.450723 0.450856 0.450985 0.45111 0.45123 0.451346 0.451456 0.451562 0.451663 0.451758 0.451848 0.451933 0.452011 0.452083 0.452149 0.452209 0.452262 0.452309 0.452348 0.45238 0.452405 0.452424 0.452435 0.452439 0.452437 0.452429 0.452414 0.452395 0.452373 0.452348 0.452322 0.452298 0.452279 0.45227 0.452274 0.452301 0.452358 0.452458 0.452616 0.452854 0.453199 0.453688 0.454369 0.455305 0.456583 0.458316 0.460654 0.463798 0.468016 0.473659 0.481201 0.491258 0.504648 0.522428 0.545954 0.576916 0.617343 0.669489 0.735555 0.817102 0.914158 1.02418 1.14149 1.25779 1.36426 1.45418 1.52462 1.57637 1.61253 1.63689 1.65291 1.6633 1.67001 1.67433 1.67713 1.67897 1.68021 1.68105 1.68165 1.68209 1.68243 1.68271 1.68294 1.68314 1.68332 1.68348 1.68363 1.68377 1.6839 1.68402 1.68413 1.68424 1.68434 1.68442 1.6845 1.68457 1.68463 1.68468 1.68473 1.68476 1.68479 1.6848 1.68481 1.6848 1.68479 1.68476 1.68473 1.68468 1.68463 1.68457 1.6845 1.68442 1.68434 1.68424 1.68413 1.68402 1.6839 1.68377 1.68363 1.68348 1.68332 1.68314 1.68294 1.68271 1.68243 1.68209 1.68165 1.68105 1.68021 1.67897 1.67713 1.67433 1.67001 1.6633 1.65291 1.63689 1.61253 1.57637 1.52462 1.45418 1.36426 1.25779 1.14149 1.02419 0.914159 0.817103 0.735556 0.66949 0.617344 0.576918 0.545955 0.522429 0.50465 0.49126 0.481203 0.473661 0.468018 0.4638 0.460656 0.458318 0.456586 0.455307 0.454371 0.45369 0.453201 0.452856 0.452618 0.45246 0.45236 0.452303 0.452276 0.452271 0.452281 0.4523 0.452323 0.452349 0.452374 0.452397 0.452415 0.452429 0.452438 0.45244 0.452435 0.452424 0.452406 0.45238 0.452348 0.452308 0.452261 0.452208 0.452148 0.452082 0.452009 0.451931 0.451846 0.451756 0.45166 0.45156 0.451453 0.451343 0.451226 0.451107 0.450981 0.450852 0.450718 0.450581 0.450439 0.450294 0.450144 0.449991 0.449833 0.449673 0.449508 0.44934 0.449168 0.448994 0.448815 0.448635 0.44845 0.448263 0.448073 0.447881 0.447686 0.44749 0.447291 0.447092 0.44689 0.446689 0.446486 0.446284 0.446081 0.445879 0.445678 0.44548 0.445282 0.445088 0.444896 0.444708 0.444524 0.444345 0.444171 0.444003 0.44384 0.443686 0.443537 0.443397 0.443265 0.443142 0.443028 0.442925 0.44283 0.442747 0.442674 0.442613 0.442563 0.442524 0.442497 0.442483 0.442479 0.442489 0.44251 0.442543 0.442588 0.442644 0.442712 0.442791 0.44288 0.44298 0.443089 0.443207 0.443334 0.44347 0.443612 0.443762 0.443917 0.444077 0.444241 0.444409 0.444578 0.444749 0.44492 0.445091 0.445259 0.445425 0.445586 0.445742 0.445892 0.446034 0.446168 0.446292 0.446405 0.446507 0.446596 0.446672 0.446733 0.446781 0.446815 0.446835 0.446844 0.446842 0.446834 0.446824 0.446817 0.443142 0.443144 0.443147 0.443146 0.443138 0.443122 0.443094 0.443054 0.443002 0.442936 0.442858 0.442768 0.442665 0.442552 0.442429 0.442296 0.442156 0.442008 0.441855 0.441697 0.441535 0.44137 0.441204 0.441037 0.44087 0.440705 0.440543 0.440383 0.440229 0.440078 0.439935 0.439797 0.439667 0.439545 0.439432 0.439327 0.439233 0.439148 0.439075 0.439011 0.43896 0.438919 0.438891 0.438873 0.438868 0.438873 0.438892 0.43892 0.438962 0.439013 0.439076 0.43915 0.439234 0.439328 0.439432 0.439544 0.439666 0.439796 0.439934 0.440079 0.440231 0.440389 0.440553 0.440722 0.440897 0.441074 0.441257 0.441441 0.441629 0.441818 0.44201 0.442202 0.442396 0.44259 0.442784 0.442977 0.44317 0.443361 0.443551 0.443739 0.443927 0.444111 0.444293 0.444472 0.44465 0.444823 0.444995 0.445162 0.445327 0.445488 0.445647 0.445801 0.445952 0.446099 0.446243 0.446382 0.446519 0.44665 0.446779 0.446902 0.447022 0.447137 0.447248 0.447353 0.447455 0.447551 0.447642 0.447727 0.447808 0.447882 0.447951 0.448013 0.448069 0.448119 0.448162 0.448198 0.448228 0.44825 0.448266 0.448275 0.448277 0.448273 0.448263 0.448247 0.448227 0.448203 0.448177 0.44815 0.448124 0.448104 0.448092 0.448093 0.448115 0.448166 0.448256 0.448402 0.448623 0.448944 0.449399 0.450035 0.45091 0.452103 0.453721 0.455902 0.458832 0.462758 0.468005 0.475005 0.484325 0.49671 0.513123 0.534804 0.563295 0.600466 0.648431 0.709346 0.784938 0.875763 0.980245 1.09395 1.20968 1.31895 1.41435 1.4916 1.55013 1.59214 1.62108 1.64046 1.65321 1.66152 1.66693 1.67045 1.67277 1.67431 1.67537 1.6761 1.67664 1.67704 1.67736 1.67762 1.67784 1.67803 1.6782 1.67836 1.67851 1.67864 1.67877 1.67889 1.67899 1.67909 1.67918 1.67926 1.67933 1.6794 1.67945 1.6795 1.67953 1.67955 1.67957 1.67957 1.67957 1.67955 1.67953 1.6795 1.67945 1.6794 1.67933 1.67926 1.67918 1.67909 1.67899 1.67889 1.67877 1.67864 1.67851 1.67836 1.6782 1.67803 1.67784 1.67762 1.67736 1.67704 1.67664 1.6761 1.67537 1.67431 1.67277 1.67045 1.66693 1.66152 1.65321 1.64046 1.62108 1.59214 1.55014 1.4916 1.41435 1.31895 1.20968 1.09395 0.980246 0.875764 0.784939 0.709347 0.648432 0.600467 0.563296 0.534805 0.513125 0.496711 0.484327 0.475007 0.468007 0.46276 0.458834 0.455904 0.453723 0.452105 0.450912 0.450037 0.449401 0.448946 0.448625 0.448404 0.448258 0.448168 0.448117 0.448095 0.448093 0.448105 0.448126 0.448151 0.448178 0.448204 0.448228 0.448248 0.448264 0.448274 0.448278 0.448275 0.448266 0.44825 0.448227 0.448198 0.448161 0.448118 0.448068 0.448012 0.447949 0.44788 0.447806 0.447725 0.44764 0.447548 0.447452 0.447351 0.447245 0.447134 0.447019 0.446898 0.446775 0.446646 0.446514 0.446378 0.446238 0.446094 0.445946 0.445795 0.44564 0.445481 0.44532 0.445154 0.444986 0.444814 0.44464 0.444462 0.444282 0.444099 0.443914 0.443726 0.443536 0.443344 0.443152 0.442957 0.442763 0.442567 0.442371 0.442175 0.441981 0.441786 0.441594 0.441403 0.441215 0.441029 0.440848 0.440669 0.440496 0.440327 0.440164 0.440006 0.439856 0.439712 0.439576 0.439447 0.439328 0.439217 0.439116 0.439024 0.438942 0.438871 0.438811 0.438761 0.438724 0.438696 0.438682 0.438678 0.438686 0.438705 0.438737 0.438779 0.438833 0.438897 0.438973 0.439059 0.439155 0.439259 0.439374 0.439496 0.439627 0.439764 0.439908 0.440058 0.440213 0.440371 0.440533 0.440697 0.440862 0.441027 0.441192 0.441355 0.441515 0.441672 0.441823 0.441969 0.442107 0.442237 0.442358 0.442469 0.442569 0.442657 0.442733 0.442796 0.442846 0.442883 0.442909 0.442923 0.442928 0.442928 0.442924 0.44292 0.440227 0.440227 0.440225 0.440218 0.440205 0.440183 0.440151 0.440108 0.440054 0.439987 0.439909 0.439819 0.439718 0.439607 0.439486 0.439357 0.439221 0.439077 0.438929 0.438775 0.438619 0.438459 0.438298 0.438137 0.437976 0.437816 0.43766 0.437506 0.437356 0.437211 0.437073 0.43694 0.436815 0.436697 0.436589 0.436488 0.436398 0.436316 0.436246 0.436185 0.436136 0.436098 0.436071 0.436055 0.436051 0.436057 0.436075 0.436104 0.436145 0.436196 0.436258 0.436329 0.436412 0.436503 0.436604 0.436714 0.436833 0.436959 0.437093 0.437233 0.437381 0.437534 0.437694 0.437857 0.438026 0.438198 0.438375 0.438553 0.438735 0.438918 0.439103 0.439289 0.439476 0.439663 0.439851 0.440037 0.440223 0.440407 0.440591 0.440773 0.440953 0.44113 0.441306 0.441479 0.44165 0.441817 0.441982 0.442143 0.442302 0.442457 0.442609 0.442757 0.442903 0.443044 0.443183 0.443316 0.443447 0.443573 0.443697 0.443815 0.44393 0.444039 0.444145 0.444246 0.444343 0.444434 0.444521 0.444602 0.444678 0.444748 0.444813 0.444871 0.444924 0.44497 0.44501 0.445042 0.445069 0.445089 0.445102 0.445108 0.445108 0.445102 0.44509 0.445073 0.445051 0.445025 0.444997 0.444969 0.444942 0.444919 0.444904 0.444902 0.444918 0.444962 0.445043 0.445176 0.445378 0.445674 0.446095 0.446683 0.447493 0.448599 0.450097 0.452117 0.454826 0.458451 0.463288 0.469731 0.478292 0.489646 0.504663 0.524461 0.550437 0.584297 0.628007 0.68365 0.753068 0.837265 0.935554 1.04475 1.15889 1.27014 1.37072 1.45509 1.52118 1.57001 1.60449 1.62805 1.64379 1.65417 1.66098 1.66544 1.66839 1.67035 1.67168 1.6726 1.67325 1.67374 1.67411 1.67441 1.67465 1.67487 1.67505 1.67522 1.67537 1.67552 1.67564 1.67577 1.67587 1.67598 1.67607 1.67615 1.67622 1.67629 1.67634 1.67639 1.67642 1.67644 1.67646 1.67646 1.67646 1.67644 1.67642 1.67639 1.67634 1.67629 1.67622 1.67615 1.67607 1.67598 1.67587 1.67577 1.67564 1.67552 1.67537 1.67522 1.67505 1.67487 1.67465 1.67441 1.67411 1.67374 1.67325 1.6726 1.67168 1.67035 1.66839 1.66544 1.66098 1.65417 1.64379 1.62805 1.60449 1.57001 1.52118 1.45509 1.37072 1.27014 1.15889 1.04475 0.935555 0.837267 0.753069 0.683651 0.628008 0.584298 0.550438 0.524462 0.504665 0.489648 0.478294 0.469733 0.46329 0.458453 0.454828 0.452118 0.450099 0.448601 0.447495 0.446685 0.446097 0.445676 0.44538 0.445178 0.445045 0.444964 0.44492 0.444904 0.444906 0.44492 0.444943 0.44497 0.444999 0.445026 0.445052 0.445074 0.445091 0.445103 0.445109 0.445108 0.445102 0.445089 0.445069 0.445042 0.445009 0.444969 0.444923 0.44487 0.444812 0.444747 0.444676 0.4446 0.444519 0.444432 0.44434 0.444243 0.444142 0.444036 0.443926 0.443811 0.443693 0.443569 0.443443 0.443312 0.443178 0.443039 0.442897 0.442751 0.442603 0.44245 0.442295 0.442135 0.441974 0.441808 0.44164 0.441468 0.441295 0.441118 0.44094 0.440759 0.440576 0.440391 0.440205 0.440017 0.439829 0.43964 0.439451 0.439262 0.439074 0.438885 0.4387 0.438515 0.438333 0.438153 0.437977 0.437804 0.437636 0.437472 0.437314 0.43716 0.437014 0.436874 0.436742 0.436617 0.436501 0.436392 0.436294 0.436204 0.436124 0.436054 0.435995 0.435946 0.435908 0.435881 0.435866 0.435861 0.435868 0.435886 0.435916 0.435955 0.436007 0.436069 0.436141 0.436223 0.436315 0.436416 0.436527 0.436644 0.43677 0.436903 0.437042 0.437186 0.437336 0.437489 0.437645 0.437804 0.437964 0.438124 0.438284 0.438441 0.438597 0.438749 0.438896 0.439037 0.439172 0.439299 0.439418 0.439527 0.439626 0.439713 0.43979 0.439854 0.439907 0.439948 0.439978 0.439998 0.440009 0.440014 0.440015 0.440015 0.438056 0.438054 0.438048 0.438037 0.438019 0.437992 0.437957 0.43791 0.437853 0.437785 0.437707 0.437617 0.437517 0.437408 0.43729 0.437164 0.437031 0.436891 0.436747 0.436598 0.436446 0.436291 0.436136 0.435979 0.435824 0.435669 0.435518 0.435369 0.435225 0.435085 0.434951 0.434823 0.434703 0.434589 0.434484 0.434388 0.434301 0.434223 0.434156 0.434098 0.434051 0.434015 0.43399 0.433975 0.433972 0.433979 0.433998 0.434026 0.434067 0.434117 0.434178 0.434248 0.434329 0.434418 0.434517 0.434623 0.434739 0.434861 0.434992 0.435128 0.435272 0.435421 0.435575 0.435734 0.435898 0.436064 0.436235 0.436408 0.436584 0.436761 0.43694 0.43712 0.437301 0.437481 0.437662 0.437841 0.438021 0.438199 0.438376 0.438551 0.438725 0.438896 0.439065 0.439231 0.439396 0.439557 0.439716 0.439871 0.440024 0.440172 0.440319 0.440461 0.440601 0.440736 0.440869 0.440997 0.441123 0.441244 0.441361 0.441474 0.441584 0.441689 0.44179 0.441886 0.441978 0.442065 0.442147 0.442224 0.442296 0.442361 0.442422 0.442476 0.442525 0.442568 0.442604 0.442634 0.442657 0.442674 0.442684 0.442688 0.442686 0.442677 0.442663 0.442644 0.44262 0.442593 0.442563 0.442533 0.442504 0.442478 0.44246 0.442454 0.442465 0.442501 0.442572 0.442691 0.442874 0.443145 0.44353 0.444071 0.444815 0.445833 0.44721 0.449065 0.451552 0.454875 0.459301 0.465186 0.47299 0.483317 0.496948 0.514881 0.538374 0.568968 0.608472 0.658869 0.722057 0.799381 0.890911 0.994635 1.10593 1.21789 1.32276 1.41404 1.48811 1.54464 1.58564 1.61427 1.63374 1.64676 1.65537 1.66106 1.66483 1.66734 1.66904 1.6702 1.67102 1.67162 1.67206 1.67241 1.67269 1.67293 1.67313 1.67331 1.67347 1.67362 1.67375 1.67387 1.67398 1.67409 1.67418 1.67426 1.67434 1.6744 1.67445 1.6745 1.67453 1.67456 1.67457 1.67458 1.67457 1.67456 1.67453 1.6745 1.67445 1.6744 1.67434 1.67426 1.67418 1.67409 1.67398 1.67387 1.67375 1.67362 1.67347 1.67331 1.67313 1.67293 1.67269 1.67241 1.67206 1.67162 1.67102 1.6702 1.66904 1.66734 1.66483 1.66106 1.65537 1.64676 1.63374 1.61427 1.58564 1.54464 1.48811 1.41404 1.32276 1.21789 1.10593 0.994636 0.890912 0.799382 0.722058 0.658871 0.608473 0.568969 0.538375 0.514883 0.496949 0.483319 0.472991 0.465187 0.459303 0.454876 0.451554 0.449067 0.447212 0.445835 0.444817 0.444072 0.443532 0.443146 0.442876 0.442693 0.442574 0.442503 0.442467 0.442455 0.442462 0.44248 0.442505 0.442534 0.442564 0.442594 0.442621 0.442645 0.442664 0.442678 0.442686 0.442688 0.442684 0.442674 0.442657 0.442633 0.442603 0.442567 0.442524 0.442475 0.442421 0.44236 0.442294 0.442222 0.442145 0.442062 0.441976 0.441883 0.441787 0.441686 0.441581 0.441471 0.441357 0.441239 0.441118 0.440993 0.440864 0.440731 0.440595 0.440455 0.440312 0.440165 0.440016 0.439863 0.439707 0.439548 0.439386 0.439221 0.439054 0.438884 0.438712 0.438537 0.438361 0.438182 0.438003 0.437822 0.43764 0.437457 0.437275 0.437092 0.43691 0.436728 0.436548 0.436369 0.436193 0.436018 0.435848 0.43568 0.435517 0.435358 0.435204 0.435055 0.434913 0.434777 0.434648 0.434526 0.434413 0.434307 0.43421 0.434122 0.434044 0.433975 0.433917 0.433869 0.433831 0.433804 0.433788 0.433782 0.433788 0.433804 0.433832 0.43387 0.433919 0.433978 0.434047 0.434126 0.434215 0.434312 0.434418 0.434531 0.434653 0.434781 0.434915 0.435055 0.435199 0.435347 0.435499 0.435652 0.435807 0.435963 0.436118 0.436271 0.436422 0.436569 0.436713 0.43685 0.436982 0.437106 0.437223 0.43733 0.437429 0.437516 0.437594 0.43766 0.437715 0.43776 0.437794 0.437819 0.437836 0.437846 0.437851 0.437853 0.436443 0.436439 0.43643 0.436415 0.436392 0.436362 0.436323 0.436274 0.436215 0.436145 0.436066 0.435976 0.435877 0.435769 0.435654 0.43553 0.4354 0.435264 0.435123 0.434978 0.434831 0.434681 0.43453 0.434378 0.434228 0.434078 0.433931 0.433788 0.433648 0.433513 0.433384 0.43326 0.433144 0.433035 0.432934 0.432841 0.432757 0.432683 0.432618 0.432563 0.432519 0.432484 0.432461 0.432447 0.432445 0.432453 0.432472 0.432501 0.432541 0.432591 0.432651 0.432719 0.432798 0.432886 0.432982 0.433086 0.433199 0.433318 0.433445 0.433578 0.433718 0.433862 0.434012 0.434166 0.434325 0.434486 0.434652 0.434819 0.434989 0.43516 0.435334 0.435507 0.435682 0.435856 0.436031 0.436204 0.436378 0.436549 0.43672 0.436888 0.437056 0.43722 0.437383 0.437543 0.437701 0.437856 0.438009 0.438158 0.438304 0.438447 0.438588 0.438724 0.438858 0.438988 0.439115 0.439238 0.439358 0.439474 0.439586 0.439694 0.439799 0.439899 0.439995 0.440086 0.440173 0.440255 0.440333 0.440405 0.440473 0.440535 0.440591 0.440642 0.440687 0.440725 0.440758 0.440784 0.440805 0.440818 0.440826 0.440827 0.440822 0.440812 0.440795 0.440774 0.440748 0.440719 0.440688 0.440655 0.440623 0.440595 0.440574 0.440563 0.440569 0.440597 0.440658 0.440763 0.440927 0.441171 0.441522 0.442014 0.442694 0.443623 0.444881 0.446574 0.44884 0.451865 0.455888 0.461226 0.468289 0.477617 0.489902 0.506032 0.527127 0.55457 0.590008 0.635299 0.692335 0.762691 0.84704 0.944407 1.05149 1.16258 1.27038 1.36781 1.44991 1.51475 1.56323 1.59794 1.62201 1.63835 1.64929 1.65658 1.66142 1.66467 1.66685 1.66834 1.66938 1.67012 1.67067 1.67109 1.67141 1.67168 1.6719 1.6721 1.67227 1.67243 1.67256 1.67269 1.6728 1.67291 1.673 1.67309 1.67316 1.67323 1.67328 1.67333 1.67336 1.67339 1.6734 1.67341 1.6734 1.67339 1.67336 1.67333 1.67328 1.67323 1.67316 1.67309 1.673 1.67291 1.6728 1.67269 1.67256 1.67243 1.67227 1.6721 1.6719 1.67168 1.67141 1.67109 1.67067 1.67012 1.66938 1.66834 1.66685 1.66467 1.66142 1.65658 1.64929 1.63835 1.62201 1.59794 1.56323 1.51475 1.44991 1.36781 1.27038 1.16258 1.05149 0.944408 0.847041 0.762692 0.692336 0.635301 0.590009 0.554571 0.527128 0.506034 0.489903 0.477619 0.468291 0.461227 0.45589 0.451867 0.448842 0.446575 0.444882 0.443625 0.442696 0.442016 0.441523 0.441173 0.440929 0.440765 0.44066 0.440599 0.44057 0.440565 0.440575 0.440597 0.440625 0.440656 0.440689 0.44072 0.440749 0.440775 0.440796 0.440812 0.440823 0.440827 0.440826 0.440818 0.440805 0.440784 0.440758 0.440724 0.440686 0.44064 0.44059 0.440533 0.440471 0.440403 0.440331 0.440253 0.440171 0.440083 0.439992 0.439895 0.439795 0.43969 0.439582 0.439469 0.439354 0.439233 0.43911 0.438983 0.438853 0.438718 0.438581 0.43844 0.438297 0.43815 0.438 0.437847 0.437692 0.437533 0.437372 0.437208 0.437043 0.436874 0.436704 0.436532 0.436359 0.436184 0.436009 0.435832 0.435656 0.435479 0.435303 0.435127 0.434953 0.434779 0.434609 0.43444 0.434274 0.434111 0.433953 0.433798 0.433649 0.433504 0.433366 0.433233 0.433108 0.432988 0.432878 0.432774 0.43268 0.432593 0.432517 0.432449 0.432391 0.432343 0.432306 0.432278 0.432262 0.432255 0.43226 0.432275 0.432301 0.432336 0.432383 0.432439 0.432506 0.432581 0.432666 0.43276 0.432862 0.432972 0.433089 0.433213 0.433343 0.433478 0.433618 0.433761 0.433908 0.434057 0.434207 0.434358 0.434508 0.434657 0.434804 0.434948 0.435088 0.435222 0.435351 0.435473 0.435588 0.435694 0.435792 0.43588 0.435958 0.436026 0.436084 0.436132 0.43617 0.436199 0.436221 0.436235 0.436244 0.436247 0.435247 0.435241 0.43523 0.435212 0.435186 0.435152 0.43511 0.435058 0.434997 0.434926 0.434846 0.434756 0.434658 0.434552 0.434438 0.434316 0.434189 0