# vtk DataFile Version 3.0
Immiscible displacement
ASCII
DATASET RECTILINEAR_GRID
DIMENSIONS 200 200 1
X_COORDINATES 200 double
1 2 3 4 5 6 7 8 9 10 11 12 13 14 15 16 17 18 19 20 21 22 23 24 25 26 27 28 29 30 31 32 33 34 35 36 37 38 39 40 41 42 43 44 45 46 47 48 49 50 51 52 53 54 55 56 57 58 59 60 61 62 63 64 65 66 67 68 69 70 71 72 73 74 75 76 77 78 79 80 81 82 83 84 85 86 87 88 89 90 91 92 93 94 95 96 97 98 99 100 101 102 103 104 105 106 107 108 109 110 111 112 113 114 115 116 117 118 119 120 121 122 123 124 125 126 127 128 129 130 131 132 133 134 135 136 137 138 139 140 141 142 143 144 145 146 147 148 149 150 151 152 153 154 155 156 157 158 159 160 161 162 163 164 165 166 167 168 169 170 171 172 173 174 175 176 177 178 179 180 181 182 183 184 185 186 187 188 189 190 191 192 193 194 195 196 197 198 199 200 
Y_COORDINATES 200 double
1 2 3 4 5 6 7 8 9 10 11 12 13 14 15 16 17 18 19 20 21 22 23 24 25 26 27 28 29 30 31 32 33 34 35 36 37 38 39 40 41 42 43 44 45 46 47 48 49 50 51 52 53 54 55 56 57 58 59 60 61 62 63 64 65 66 67 68 69 70 71 72 73 74 75 76 77 78 79 80 81 82 83 84 85 86 87 88 89 90 91 92 93 94 95 96 97 98 99 100 101 102 103 104 105 106 107 108 109 110 111 112 113 114 115 116 117 118 119 120 121 122 123 124 125 126 127 128 129 130 131 132 133 134 135 136 137 138 139 140 141 142 143 144 145 146 147 148 149 150 151 152 153 154 155 156 157 158 159 160 161 162 163 164 165 166 167 168 169 170 171 172 173 174 175 176 177 178 179 180 181 182 183 184 185 186 187 188 189 190 191 192 193 194 195 196 197 198 199 200 
Z_COORDINATES 1 double
0
POINT_DATA 40000
SCALARS rho double 1
LOOKUP_TABLE default
0.43964 0.439536 0.439392 0.439239 0.439093 0.438962 0.438849 0.438757 0.438683 0.438628 0.43859 0.43857 0.438564 0.438576 0.438605 0.438656 0.438732 0.438844 0.439 0.439221 0.439528 0.439954 0.440543 0.441356 0.442472 0.444004 0.446095 0.448947 0.452823 0.458083 0.4652 0.474813 0.487765 0.505168 0.528461 0.559479 0.600448 0.653919 0.722434 0.80789 0.910422 1.02714 1.15136 1.27335 1.38304 1.47329 1.54176 1.59032 1.62309 1.64452 1.65832 1.66723 1.67307 1.67703 1.67984 1.68194 1.6836 1.685 1.6862 1.6873 1.68829 1.68923 1.6901 1.69094 1.69172 1.69247 1.69318 1.69385 1.69449 1.6951 1.69568 1.69623 1.69674 1.69723 1.69769 1.69813 1.69854 1.69894 1.6993 1.69965 1.69997 1.70027 1.70055 1.70082 1.70106 1.70129 1.7015 1.70169 1.70186 1.70203 1.70216 1.7023 1.7024 1.7025 1.70258 1.70265 1.7027 1.70274 1.70275 1.70276 1.70275 1.70273 1.70269 1.70264 1.70257 1.70249 1.70239 1.70228 1.70214 1.702 1.70184 1.70166 1.70146 1.70125 1.70102 1.70077 1.7005 1.70022 1.6999 1.69958 1.69923 1.69886 1.69846 1.69804 1.69759 1.69713 1.69663 1.6961 1.69555 1.69497 1.69435 1.6937 1.69302 1.6923 1.69155 1.69075 1.68991 1.68903 1.68809 1.68708 1.68598 1.68477 1.68336 1.68168 1.67956 1.67672 1.67271 1.66679 1.65776 1.64377 1.62206 1.58888 1.53977 1.47068 1.37981 1.26967 1.1475 1.02344 0.907103 0.805092 0.720183 0.652169 0.599125 0.558504 0.527763 0.504688 0.487457 0.474643 0.465139 0.458112 0.452928 0.449116 0.446318 0.444274 0.442783 0.441702 0.44092 0.440358 0.439953 0.439665 0.439458 0.439312 0.439207 0.439133 0.439081 0.439047 0.439026 0.439019 0.439024 0.439042 0.439075 0.439124 0.439191 0.439278 0.439383 0.439508 0.439649 0.439797 0.439937 0.44004 0.439519 0.439439 0.439316 0.439179 0.439044 0.438921 0.438813 0.438724 0.438652 0.438599 0.438561 0.438541 0.438535 0.438547 0.438574 0.438625 0.4387 0.438811 0.438965 0.439186 0.43949 0.439915 0.440501 0.441312 0.442423 0.44395 0.446032 0.448874 0.452734 0.457973 0.465059 0.474632 0.487526 0.504853 0.528041 0.558921 0.599709 0.652954 0.721197 0.806355 0.908599 1.02511 1.14925 1.27134 1.3813 1.47191 1.54074 1.58962 1.62262 1.64421 1.65812 1.66709 1.67297 1.67696 1.67977 1.68189 1.68355 1.68494 1.68615 1.68724 1.68823 1.68917 1.69004 1.69087 1.69165 1.69241 1.69311 1.69379 1.69442 1.69504 1.69561 1.69616 1.69667 1.69717 1.69763 1.69808 1.69848 1.69888 1.69924 1.69959 1.69991 1.70022 1.7005 1.70077 1.70101 1.70125 1.70145 1.70165 1.70182 1.70198 1.70212 1.70226 1.70236 1.70246 1.70254 1.70261 1.70265 1.7027 1.70271 1.70273 1.70271 1.70269 1.70265 1.7026 1.70253 1.70245 1.70234 1.70224 1.7021 1.70196 1.70179 1.70162 1.70141 1.70121 1.70097 1.70072 1.70045 1.70017 1.69985 1.69953 1.69917 1.6988 1.6984 1.69798 1.69753 1.69707 1.69656 1.69604 1.69548 1.6949 1.69428 1.69364 1.69295 1.69224 1.69148 1.69069 1.68985 1.68897 1.68803 1.68703 1.68593 1.68471 1.68331 1.68163 1.6795 1.67665 1.67261 1.66666 1.65756 1.64346 1.62158 1.58817 1.53875 1.46929 1.37806 1.26766 1.14539 1.0214 0.905289 0.803568 0.718957 0.651215 0.598396 0.557955 0.527351 0.50438 0.487224 0.474467 0.465003 0.458007 0.452842 0.449046 0.446258 0.444222 0.442736 0.44166 0.440879 0.44032 0.439916 0.43963 0.439423 0.439278 0.439174 0.439101 0.439049 0.439017 0.438996 0.43899 0.438995 0.439014 0.439045 0.439094 0.439158 0.439241 0.439342 0.439459 0.439588 0.439721 0.439841 0.43992 0.439339 0.43928 0.439182 0.439067 0.43895 0.43884 0.438742 0.438661 0.438593 0.438543 0.438508 0.438488 0.438482 0.438493 0.43852 0.438569 0.438642 0.438752 0.438905 0.439123 0.439424 0.439846 0.440427 0.441232 0.442335 0.44385 0.445916 0.448735 0.452563 0.457758 0.464783 0.474271 0.487049 0.504217 0.527191 0.557786 0.598203 0.65098 0.718662 0.803201 0.904846 1.0209 1.14487 1.26717 1.37766 1.46901 1.5386 1.58813 1.62163 1.64357 1.6577 1.66681 1.67278 1.67681 1.67966 1.68178 1.68345 1.68485 1.68605 1.68714 1.68813 1.68907 1.68994 1.69077 1.69155 1.6923 1.693 1.69368 1.69432 1.69493 1.6955 1.69606 1.69657 1.69707 1.69753 1.69798 1.69839 1.69879 1.69915 1.69951 1.69983 1.70014 1.70042 1.70069 1.70093 1.70117 1.70137 1.70157 1.70175 1.70191 1.70205 1.70219 1.70229 1.7024 1.70247 1.70255 1.70259 1.70263 1.70265 1.70266 1.70265 1.70263 1.70258 1.70254 1.70246 1.70238 1.70228 1.70217 1.70203 1.70189 1.70172 1.70154 1.70134 1.70113 1.70089 1.70064 1.70036 1.70008 1.69976 1.69944 1.69908 1.69871 1.6983 1.69788 1.69743 1.69696 1.69646 1.69594 1.69537 1.69479 1.69417 1.69353 1.69284 1.69213 1.69137 1.69059 1.68975 1.68887 1.68793 1.68693 1.68583 1.68462 1.68321 1.68153 1.67938 1.67651 1.67242 1.66638 1.65713 1.64281 1.62058 1.58666 1.53658 1.46636 1.3744 1.26347 1.14102 1.01721 0.901555 0.800436 0.716444 0.649261 0.596908 0.556836 0.526515 0.503756 0.486757 0.474115 0.464735 0.457799 0.452678 0.448913 0.446146 0.444126 0.442651 0.441583 0.440808 0.440252 0.439851 0.439567 0.439363 0.439219 0.439116 0.439045 0.438994 0.438962 0.438943 0.438937 0.438941 0.43896 0.43899 0.439035 0.439095 0.439171 0.439261 0.439366 0.439477 0.439588 0.439682 0.43974 0.439129 0.439085 0.43901 0.438919 0.438821 0.438728 0.438643 0.438571 0.43851 0.438465 0.438432 0.438415 0.438409 0.43842 0.438446 0.438494 0.438566 0.438673 0.438824 0.439039 0.439337 0.439754 0.440328 0.441124 0.442214 0.443711 0.445752 0.448537 0.452316 0.457444 0.464375 0.473734 0.486334 0.503261 0.525909 0.55607 0.595921 0.647983 0.714806 0.798391 0.899106 1.01445 1.13812 1.2607 1.37199 1.46446 1.53522 1.58577 1.62005 1.64254 1.65703 1.66638 1.67248 1.6766 1.67949 1.68164 1.68332 1.68472 1.68593 1.68702 1.68801 1.68894 1.6898 1.69063 1.69141 1.69216 1.69287 1.69355 1.69418 1.6948 1.69537 1.69593 1.69644 1.69695 1.69741 1.69786 1.69827 1.69867 1.69904 1.69939 1.69972 1.70003 1.70031 1.70059 1.70083 1.70107 1.70128 1.70148 1.70165 1.70182 1.70196 1.7021 1.70221 1.70231 1.70239 1.70246 1.70251 1.70255 1.70257 1.70258 1.70256 1.70255 1.7025 1.70246 1.70238 1.7023 1.70219 1.70208 1.70194 1.7018 1.70163 1.70145 1.70124 1.70103 1.70079 1.70054 1.70026 1.69997 1.69965 1.69932 1.69896 1.69859 1.69818 1.69776 1.69731 1.69684 1.69633 1.6958 1.69524 1.69466 1.69404 1.69339 1.69271 1.69199 1.69124 1.69045 1.68961 1.68874 1.6878 1.6868 1.68571 1.68449 1.68308 1.68138 1.67921 1.67629 1.67212 1.66593 1.65646 1.64177 1.61898 1.58427 1.53317 1.46178 1.3687 1.25698 1.13427 1.01077 0.895845 0.795661 0.712622 0.646294 0.594652 0.555142 0.525251 0.502816 0.486056 0.47359 0.464337 0.457494 0.452439 0.448721 0.445989 0.443993 0.442534 0.441478 0.440712 0.440162 0.439766 0.439485 0.439283 0.439141 0.439039 0.43897 0.43892 0.438889 0.43887 0.438864 0.438868 0.438884 0.438911 0.438952 0.439004 0.439071 0.439149 0.439237 0.439328 0.439416 0.439488 0.43953 0.438903 0.438872 0.438816 0.438745 0.438667 0.438591 0.43852 0.438459 0.438407 0.438368 0.438339 0.438324 0.43832 0.438332 0.438357 0.438405 0.438475 0.43858 0.438728 0.43894 0.439232 0.439643 0.440208 0.440992 0.442065 0.443538 0.445546 0.448284 0.451997 0.457034 0.463839 0.473026 0.485388 0.501992 0.524204 0.553784 0.592876 0.643978 0.709643 0.791934 0.891371 1.0057 1.12893 1.25182 1.36416 1.45813 1.53049 1.58245 1.61782 1.64108 1.65609 1.66576 1.67206 1.6763 1.67926 1.68145 1.68315 1.68457 1.68578 1.68687 1.68786 1.68879 1.68965 1.69048 1.69126 1.69201 1.69271 1.69339 1.69403 1.69464 1.69522 1.69578 1.6963 1.6968 1.69727 1.69772 1.69813 1.69854 1.69891 1.69927 1.69959 1.69991 1.70019 1.70047 1.70072 1.70096 1.70117 1.70138 1.70155 1.70172 1.70186 1.702 1.70211 1.70222 1.70229 1.70237 1.70241 1.70246 1.70247 1.70249 1.70247 1.70245 1.70241 1.70236 1.70228 1.7022 1.70209 1.70198 1.70184 1.7017 1.70152 1.70134 1.70113 1.70092 1.70067 1.70042 1.70014 1.69985 1.69953 1.69919 1.69883 1.69845 1.69804 1.69762 1.69716 1.69669 1.69618 1.69565 1.69509 1.69451 1.69388 1.69324 1.69255 1.69184 1.69108 1.6903 1.68946 1.68859 1.68765 1.68665 1.68556 1.68434 1.68291 1.6812 1.67898 1.67599 1.6717 1.66531 1.6555 1.64029 1.61672 1.58091 1.52839 1.4554 1.36083 1.24808 1.12509 1.00206 0.888153 0.789251 0.707504 0.642329 0.591641 0.552883 0.523569 0.501566 0.485127 0.472895 0.463814 0.457095 0.45213 0.448476 0.44579 0.443826 0.442391 0.441351 0.440596 0.440054 0.439664 0.439387 0.439188 0.439049 0.438949 0.438881 0.438832 0.438801 0.438782 0.438775 0.438777 0.438791 0.438814 0.438848 0.438892 0.438948 0.439012 0.439083 0.439154 0.439221 0.439274 0.439304 0.438672 0.438649 0.438608 0.438556 0.438496 0.438437 0.43838 0.43833 0.438287 0.438255 0.438232 0.43822 0.438218 0.438231 0.438257 0.438304 0.438372 0.438476 0.438621 0.438828 0.439115 0.439518 0.440072 0.44084 0.441891 0.443335 0.4453 0.447979 0.451611 0.456534 0.463183 0.472154 0.484221 0.500423 0.522093 0.550951 0.5891 0.639005 0.70322 0.783876 0.881677 0.994678 1.11726 1.24045 1.35404 1.44989 1.52428 1.57806 1.61486 1.63913 1.65482 1.66493 1.67151 1.67592 1.67897 1.68122 1.68296 1.68438 1.6856 1.6867 1.68769 1.68862 1.68948 1.69031 1.69109 1.69184 1.69254 1.69322 1.69386 1.69448 1.69505 1.69561 1.69614 1.69664 1.69711 1.69756 1.69798 1.69839 1.69876 1.69913 1.69945 1.69978 1.70006 1.70034 1.70059 1.70084 1.70105 1.70126 1.70143 1.70161 1.70175 1.70189 1.702 1.70211 1.70219 1.70226 1.70231 1.70235 1.70237 1.70238 1.70237 1.70235 1.7023 1.70225 1.70217 1.70209 1.70198 1.70187 1.70173 1.70158 1.7014 1.70122 1.70101 1.7008 1.70055 1.70029 1.70001 1.69971 1.69939 1.69905 1.69868 1.69831 1.69789 1.69747 1.69701 1.69653 1.69602 1.69549 1.69492 1.69434 1.69371 1.69307 1.69238 1.69167 1.69091 1.69013 1.68929 1.68842 1.68748 1.68648 1.68538 1.68416 1.68272 1.68097 1.6787 1.6756 1.67114 1.66448 1.65423 1.63832 1.61372 1.57647 1.52212 1.44709 1.35066 1.2367 1.11343 0.991073 0.878514 0.781252 0.701135 0.637404 0.587905 0.550084 0.521485 0.50002 0.483978 0.472039 0.463171 0.456607 0.451754 0.448181 0.445552 0.44363 0.442223 0.441204 0.440464 0.439933 0.439549 0.439278 0.439082 0.438946 0.438847 0.43878 0.438732 0.438702 0.438682 0.438674 0.438673 0.438684 0.438701 0.438728 0.438763 0.438807 0.438857 0.438911 0.438965 0.439014 0.439051 0.439072 0.43844 0.438425 0.438396 0.438358 0.438315 0.43827 0.438227 0.438189 0.438156 0.438131 0.438113 0.438106 0.438107 0.438121 0.438148 0.438194 0.438262 0.438363 0.438504 0.438707 0.438988 0.439381 0.439922 0.440672 0.441697 0.443104 0.445019 0.447628 0.451163 0.455951 0.462414 0.471129 0.482847 0.498575 0.519605 0.54761 0.584643 0.633128 0.695612 0.774301 0.870102 0.981429 1.10312 1.22654 1.34152 1.43958 1.51644 1.57248 1.61107 1.63664 1.6532 1.66388 1.67081 1.67543 1.67862 1.68094 1.68272 1.68417 1.68541 1.68651 1.6875 1.68843 1.68929 1.69012 1.6909 1.69165 1.69235 1.69303 1.69367 1.6943 1.69487 1.69544 1.69596 1.69647 1.69694 1.6974 1.69782 1.69823 1.69861 1.69897 1.69931 1.69963 1.69992 1.70021 1.70046 1.7007 1.70092 1.70113 1.70131 1.70148 1.70163 1.70177 1.70188 1.70199 1.70207 1.70215 1.70219 1.70224 1.70225 1.70227 1.70225 1.70223 1.70219 1.70214 1.70206 1.70198 1.70186 1.70175 1.7016 1.70146 1.70128 1.70109 1.70088 1.70066 1.70041 1.70015 1.69986 1.69957 1.69924 1.6989 1.69853 1.69815 1.69773 1.6973 1.69684 1.69636 1.69584 1.69531 1.69474 1.69416 1.69353 1.69288 1.69219 1.69148 1.69072 1.68994 1.6891 1.68823 1.68729 1.68629 1.68519 1.68395 1.68248 1.68069 1.67834 1.67511 1.67043 1.6634 1.65258 1.63579 1.60988 1.57082 1.51421 1.43671 1.33809 1.22277 1.0993 0.977875 0.867005 0.771747 0.693592 0.631583 0.583494 0.54678 0.519027 0.498196 0.482625 0.471032 0.462417 0.456036 0.451316 0.447839 0.445279 0.443407 0.442036 0.441041 0.440318 0.4398 0.439425 0.439159 0.438968 0.438835 0.438738 0.438672 0.438624 0.438594 0.438573 0.438563 0.438559 0.438565 0.438576 0.438596 0.438621 0.438654 0.43869 0.438729 0.438767 0.438801 0.438826 0.438839 0.438211 0.438202 0.438183 0.438158 0.438128 0.438097 0.438066 0.438039 0.438016 0.437999 0.437987 0.437984 0.437988 0.438005 0.438032 0.438079 0.438145 0.438244 0.438382 0.43858 0.438852 0.439235 0.439761 0.440489 0.441485 0.44285 0.444707 0.447235 0.450657 0.455291 0.461541 0.469965 0.481285 0.496473 0.516774 0.543809 0.579569 0.626428 0.686921 0.763323 0.856759 0.966045 1.08653 1.21005 1.3265 1.42706 1.50682 1.56555 1.60633 1.6335 1.65115 1.66254 1.66993 1.67483 1.67818 1.68061 1.68245 1.68393 1.68518 1.68629 1.68729 1.68822 1.68909 1.68992 1.6907 1.69145 1.69215 1.69284 1.69348 1.6941 1.69468 1.69525 1.69578 1.69629 1.69676 1.69722 1.69765 1.69806 1.69844 1.69881 1.69915 1.69947 1.69977 1.70006 1.70031 1.70056 1.70078 1.70099 1.70117 1.70135 1.7015 1.70164 1.70175 1.70186 1.70194 1.70202 1.70207 1.70212 1.70213 1.70215 1.70213 1.70211 1.70206 1.70201 1.70193 1.70185 1.70174 1.70162 1.70147 1.70132 1.70114 1.70096 1.70074 1.70052 1.70026 1.7 1.69971 1.69941 1.69908 1.69874 1.69836 1.69798 1.69756 1.69712 1.69666 1.69617 1.69566 1.69512 1.69455 1.69396 1.69333 1.69268 1.69199 1.69128 1.69052 1.68974 1.6889 1.68803 1.68709 1.68608 1.68496 1.6837 1.6822 1.68035 1.6779 1.6745 1.66954 1.66205 1.6505 1.6326 1.60508 1.56382 1.50449 1.42411 1.32302 1.20626 1.08275 0.962552 0.853741 0.760849 0.684974 0.624945 0.578471 0.54302 0.51623 0.49612 0.481085 0.469886 0.461559 0.455389 0.450822 0.447456 0.444975 0.44316 0.441829 0.440864 0.440162 0.439658 0.439293 0.439035 0.438848 0.438718 0.438623 0.438558 0.438511 0.438479 0.438457 0.438444 0.438437 0.438438 0.438443 0.438456 0.438471 0.438493 0.438516 0.438542 0.438566 0.438587 0.438602 0.43861 0.437988 0.437983 0.437973 0.437959 0.437941 0.437922 0.437902 0.437885 0.43787 0.437861 0.437855 0.437857 0.437864 0.437883 0.437912 0.437958 0.438024 0.438121 0.438255 0.438447 0.438711 0.439082 0.43959 0.440295 0.441256 0.442575 0.444366 0.446804 0.450101 0.454563 0.460577 0.468678 0.479557 0.494147 0.513643 0.539603 0.573952 0.619003 0.677266 0.751083 0.841798 0.948654 1.06759 1.19097 1.30889 1.41217 1.49522 1.55712 1.60051 1.62962 1.64862 1.66089 1.66883 1.67408 1.67766 1.68021 1.68213 1.68366 1.68493 1.68606 1.68707 1.688 1.68887 1.6897 1.69048 1.69123 1.69194 1.69263 1.69327 1.69389 1.69448 1.69505 1.69558 1.69609 1.69657 1.69704 1.69747 1.69788 1.69827 1.69864 1.69898 1.69931 1.69961 1.6999 1.70015 1.70041 1.70063 1.70084 1.70103 1.70121 1.70135 1.7015 1.70161 1.70173 1.70181 1.70189 1.70194 1.70198 1.702 1.70201 1.70199 1.70198 1.70193 1.70188 1.70179 1.70171 1.7016 1.70148 1.70133 1.70118 1.70099 1.70081 1.70059 1.70036 1.70011 1.69984 1.69955 1.69924 1.69891 1.69856 1.69818 1.6978 1.69737 1.69694 1.69646 1.69598 1.69546 1.69492 1.69435 1.69375 1.69312 1.69247 1.69178 1.69106 1.69031 1.68952 1.68868 1.68781 1.68686 1.68585 1.68471 1.68343 1.68188 1.67995 1.67736 1.67375 1.66843 1.66037 1.64793 1.62867 1.59919 1.5553 1.4928 1.40913 1.30534 1.18717 1.06385 0.945235 0.83887 0.748699 0.6754 0.617587 0.572908 0.538857 0.513133 0.493822 0.479379 0.468617 0.460611 0.454675 0.450277 0.447034 0.444643 0.442892 0.441608 0.440676 0.439996 0.439509 0.439155 0.438905 0.438724 0.438597 0.438504 0.43844 0.438393 0.438361 0.438336 0.438321 0.43831 0.438306 0.438305 0.43831 0.438317 0.438328 0.43834 0.438353 0.438366 0.438376 0.438383 0.438386 0.437772 0.437772 0.437769 0.437764 0.437755 0.437747 0.437737 0.437729 0.437722 0.43772 0.43772 0.437726 0.437737 0.437759 0.437789 0.437836 0.4379 0.437995 0.438125 0.43831 0.438565 0.438923 0.439412 0.44009 0.441015 0.442281 0.444001 0.44634 0.449501 0.453776 0.459533 0.467284 0.477687 0.49163 0.510255 0.535053 0.567874 0.61096 0.666786 0.737743 0.825393 0.92942 1.0464 1.16933 1.28861 1.39476 1.48146 1.54699 1.59345 1.62488 1.6455 1.65885 1.66749 1.67318 1.67702 1.67974 1.68175 1.68334 1.68465 1.6858 1.68682 1.68776 1.68864 1.68947 1.69025 1.691 1.69171 1.6924 1.69305 1.69367 1.69426 1.69483 1.69537 1.69589 1.69637 1.69684 1.69727 1.69769 1.69808 1.69845 1.6988 1.69913 1.69943 1.69973 1.69999 1.70024 1.70047 1.70068 1.70087 1.70105 1.7012 1.70135 1.70147 1.70158 1.70166 1.70174 1.70179 1.70184 1.70185 1.70187 1.70185 1.70183 1.70178 1.70173 1.70165 1.70156 1.70145 1.70133 1.70118 1.70102 1.70084 1.70065 1.70042 1.7002 1.69994 1.69967 1.69937 1.69907 1.69873 1.69838 1.698 1.6976 1.69718 1.69674 1.69626 1.69577 1.69525 1.69471 1.69413 1.69353 1.6929 1.69225 1.69155 1.69083 1.69007 1.68929 1.68845 1.68757 1.68661 1.68559 1.68443 1.68311 1.6815 1.67947 1.67672 1.67283 1.66707 1.65831 1.64477 1.62387 1.59205 1.54507 1.47893 1.39162 1.285 1.16553 1.04271 0.926087 0.822565 0.735457 0.665006 0.609616 0.566889 0.534354 0.509782 0.491334 0.477532 0.467242 0.459583 0.453901 0.449689 0.446581 0.444287 0.442606 0.441373 0.440477 0.439824 0.439354 0.439014 0.438772 0.438597 0.438474 0.438383 0.43832 0.438272 0.438239 0.438213 0.438195 0.43818 0.438171 0.438164 0.438161 0.43816 0.438162 0.438164 0.438167 0.438169 0.438171 0.43817 0.438169 0.437566 0.437569 0.437572 0.437574 0.437574 0.437574 0.437573 0.437574 0.437574 0.437578 0.437584 0.437595 0.437609 0.437633 0.437665 0.437712 0.437775 0.437868 0.437993 0.438172 0.438417 0.43876 0.439229 0.439878 0.440762 0.441973 0.443616 0.445849 0.448864 0.45294 0.458424 0.465803 0.4757 0.488958 0.50666 0.530226 0.561424 0.602415 0.655625 0.723481 0.807745 0.90854 1.02312 1.14521 1.26561 1.37468 1.46533 1.53495 1.58495 1.61912 1.6417 1.65636 1.66585 1.67207 1.67625 1.67917 1.68131 1.68298 1.68434 1.68551 1.68655 1.6875 1.68838 1.68922 1.69 1.69076 1.69147 1.69216 1.69281 1.69344 1.69403 1.69461 1.69515 1.69567 1.69615 1.69663 1.69706 1.69749 1.69788 1.69826 1.69861 1.69894 1.69925 1.69954 1.69981 1.70007 1.70029 1.70051 1.7007 1.70089 1.70104 1.70119 1.70131 1.70142 1.7015 1.70158 1.70163 1.70168 1.7017 1.70171 1.7017 1.70168 1.70163 1.70157 1.70149 1.7014 1.70129 1.70116 1.70101 1.70086 1.70067 1.70047 1.70025 1.70002 1.69976 1.69949 1.69919 1.69888 1.69853 1.69818 1.6978 1.6974 1.69697 1.69652 1.69605 1.69555 1.69502 1.69448 1.6939 1.6933 1.69266 1.69201 1.69131 1.69059 1.68983 1.68903 1.68819 1.6873 1.68634 1.6853 1.68412 1.68275 1.68106 1.6789 1.67594 1.67171 1.6654 1.65578 1.64091 1.61804 1.58345 1.5329 1.46267 1.37143 1.26195 1.14141 1.01949 0.905305 0.805027 0.7213 0.653937 0.601147 0.560499 0.529574 0.506224 0.488691 0.475568 0.46578 0.45849 0.453078 0.449064 0.446099 0.443911 0.442306 0.441127 0.44027 0.439645 0.439196 0.438869 0.438637 0.438468 0.438349 0.438261 0.438199 0.438151 0.438117 0.438088 0.438067 0.438049 0.438035 0.438022 0.438013 0.438004 0.437998 0.437991 0.437985 0.437979 0.437973 0.437967 0.437962 0.43737 0.437375 0.437383 0.437391 0.437399 0.437407 0.437413 0.437421 0.437428 0.437438 0.437449 0.437464 0.437482 0.437508 0.437541 0.437588 0.437651 0.43774 0.437861 0.438032 0.438267 0.438594 0.439041 0.439659 0.440501 0.441653 0.443215 0.445336 0.448199 0.452065 0.457264 0.464253 0.473622 0.486166 0.502907 0.525188 0.554691 0.593486 0.643938 0.708487 0.789071 0.886241 0.997944 1.1187 1.23988 1.35177 1.4466 1.52073 1.5748 1.61218 1.63707 1.65332 1.66385 1.67073 1.67532 1.67851 1.6808 1.68257 1.68398 1.68519 1.68625 1.68722 1.68811 1.68895 1.68974 1.6905 1.69121 1.69191 1.69256 1.69319 1.69379 1.69437 1.69491 1.69544 1.69593 1.6964 1.69684 1.69727 1.69767 1.69805 1.6984 1.69874 1.69905 1.69935 1.69962 1.69988 1.70011 1.70033 1.70052 1.70071 1.70086 1.70101 1.70113 1.70125 1.70134 1.70142 1.70147 1.70151 1.70153 1.70155 1.70153 1.70151 1.70146 1.7014 1.70132 1.70123 1.70111 1.70099 1.70084 1.70068 1.70049 1.70029 1.70007 1.69983 1.69957 1.69929 1.69899 1.69868 1.69833 1.69797 1.69758 1.69718 1.69675 1.6963 1.69582 1.69532 1.69479 1.69424 1.69366 1.69305 1.69241 1.69175 1.69105 1.69033 1.68956 1.68877 1.68792 1.68702 1.68604 1.68498 1.68376 1.68233 1.68055 1.67823 1.675 1.67035 1.66337 1.6527 1.63623 1.61101 1.57318 1.51855 1.4438 1.34842 1.23617 1.11492 0.994389 0.883115 0.786472 0.706417 0.642345 0.592296 0.553827 0.524584 0.502508 0.485929 0.473515 0.46425 0.457345 0.452216 0.448409 0.445597 0.443518 0.441993 0.440873 0.440058 0.439463 0.439035 0.438723 0.438502 0.43834 0.438225 0.438139 0.438078 0.43803 0.437995 0.437964 0.43794 0.437918 0.4379 0.437882 0.437866 0.437851 0.437837 0.437822 0.437809 0.437796 0.437783 0.437772 0.437766 0.437184 0.437192 0.437203 0.437217 0.437231 0.437245 0.437258 0.437272 0.437285 0.4373 0.437316 0.437335 0.437356 0.437384 0.437418 0.437466 0.437527 0.437614 0.43773 0.437893 0.438116 0.438427 0.438852 0.439438 0.440235 0.441325 0.442803 0.444807 0.447512 0.451161 0.456066 0.462655 0.471481 0.48329 0.499043 0.520005 0.547763 0.584292 0.631878 0.692954 0.769604 0.862773 0.9711 1.08997 1.21145 1.32595 1.42505 1.50408 1.56272 1.60383 1.63147 1.64962 1.66141 1.6691 1.67421 1.67771 1.68021 1.68209 1.68358 1.68484 1.68592 1.68691 1.68781 1.68866 1.68946 1.69022 1.69094 1.69164 1.6923 1.69293 1.69353 1.69411 1.69466 1.69519 1.69568 1.69616 1.69661 1.69704 1.69744 1.69783 1.69818 1.69853 1.69884 1.69914 1.69941 1.69968 1.69991 1.70013 1.70033 1.70052 1.70067 1.70083 1.70095 1.70106 1.70115 1.70123 1.70129 1.70133 1.70135 1.70136 1.70135 1.70133 1.70128 1.70122 1.70114 1.70105 1.70093 1.7008 1.70065 1.70049 1.70029 1.7001 1.69987 1.69963 1.69936 1.69909 1.69878 1.69846 1.69811 1.69775 1.69736 1.69695 1.69651 1.69606 1.69558 1.69507 1.69454 1.69399 1.6934 1.69279 1.69215 1.69148 1.69078 1.69005 1.68928 1.68848 1.68762 1.68671 1.68572 1.68462 1.68336 1.68185 1.67995 1.67742 1.67387 1.6687 1.6609 1.64895 1.63055 1.60255 1.56097 1.50175 1.42211 1.32249 1.20771 1.08623 0.967637 0.859769 0.767131 0.690999 0.630382 0.58318 0.546961 0.519449 0.498682 0.483082 0.471396 0.46267 0.456162 0.451326 0.447733 0.445078 0.443114 0.441673 0.440613 0.439842 0.439278 0.438873 0.438577 0.438366 0.438212 0.438102 0.438019 0.437959 0.437911 0.437874 0.437842 0.437815 0.437789 0.437767 0.437744 0.437723 0.437701 0.437681 0.43766 0.437641 0.437621 0.437604 0.437589 0.43758 0.43701 0.437019 0.437034 0.437052 0.43707 0.43709 0.437109 0.437128 0.437147 0.437167 0.437186 0.437209 0.437233 0.437263 0.437298 0.437346 0.437406 0.437489 0.4376 0.437756 0.437967 0.438261 0.438661 0.439214 0.439965 0.440992 0.442383 0.444269 0.446811 0.45024 0.454844 0.461026 0.4693 0.480365 0.495117 0.51474 0.540727 0.574947 0.619595 0.677074 0.749579 0.838406 0.942861 1.05924 1.18043 1.29714 1.40047 1.48471 1.54844 1.59381 1.62469 1.64511 1.65843 1.66712 1.67286 1.67676 1.6795 1.68154 1.68313 1.68444 1.68557 1.68657 1.68749 1.68835 1.68916 1.68993 1.69065 1.69135 1.69201 1.69265 1.69326 1.69384 1.69439 1.69493 1.69543 1.69591 1.69636 1.6968 1.6972 1.69759 1.69795 1.6983 1.69862 1.69892 1.6992 1.69946 1.6997 1.69993 1.70012 1.70031 1.70047 1.70063 1.70075 1.70087 1.70096 1.70104 1.70109 1.70114 1.70116 1.70117 1.70116 1.70113 1.70108 1.70103 1.70094 1.70085 1.70073 1.7006 1.70045 1.70028 1.70009 1.69989 1.69966 1.69942 1.69915 1.69887 1.69855 1.69823 1.69788 1.69751 1.69712 1.69671 1.69627 1.69581 1.69532 1.69481 1.69427 1.69372 1.69312 1.69251 1.69186 1.6912 1.69049 1.68976 1.68898 1.68817 1.6873 1.68638 1.68536 1.68423 1.6829 1.6813 1.67923 1.67646 1.67251 1.66669 1.65788 1.64438 1.62368 1.59241 1.54653 1.48221 1.39738 1.29358 1.17666 1.05555 0.939505 0.835533 0.747238 0.675238 0.618198 0.573914 0.539987 0.514232 0.494793 0.480187 0.469239 0.46106 0.454956 0.450417 0.447043 0.444548 0.442702 0.441347 0.44035 0.439624 0.439093 0.438711 0.438432 0.438232 0.438086 0.437981 0.437901 0.437842 0.437794 0.437756 0.437722 0.437693 0.437664 0.437638 0.43761 0.437585 0.437558 0.437532 0.437505 0.43748 0.437456 0.437434 0.437416 0.437405 0.436847 0.436858 0.436875 0.436897 0.436919 0.436943 0.436967 0.436991 0.437014 0.437038 0.437061 0.437087 0.437113 0.437145 0.437182 0.437229 0.437287 0.437368 0.437473 0.437621 0.437819 0.438096 0.438472 0.438991 0.439695 0.440658 0.44196 0.443725 0.446104 0.44931 0.453612 0.459385 0.467105 0.477423 0.491172 0.509453 0.533662 0.565558 0.607234 0.661037 0.729234 0.81342 0.913526 1.02676 1.14695 1.26532 1.37269 1.46231 1.53161 1.58184 1.61649 1.63963 1.65479 1.6647 1.67122 1.67561 1.67867 1.6809 1.68261 1.684 1.68517 1.68621 1.68715 1.68802 1.68883 1.68961 1.69034 1.69105 1.69171 1.69236 1.69297 1.69356 1.69411 1.69465 1.69515 1.69564 1.6961 1.69654 1.69695 1.69734 1.6977 1.69806 1.69838 1.69868 1.69896 1.69923 1.69947 1.6997 1.6999 1.70009 1.70026 1.70041 1.70054 1.70066 1.70075 1.70083 1.70088 1.70093 1.70095 1.70096 1.70095 1.70093 1.70087 1.70082 1.70073 1.70064 1.70052 1.70039 1.70023 1.70006 1.69987 1.69966 1.69943 1.69919 1.69891 1.69863 1.69831 1.69799 1.69763 1.69726 1.69686 1.69645 1.696 1.69554 1.69505 1.69454 1.69399 1.69343 1.69283 1.69222 1.69157 1.69089 1.69018 1.68944 1.68866 1.68784 1.68695 1.68601 1.68496 1.68378 1.68238 1.68065 1.67839 1.6753 1.67084 1.66424 1.65419 1.63882 1.61538 1.5803 1.52953 1.45964 1.36945 1.26168 1.14318 1.02314 0.910292 0.81069 0.72703 0.659321 0.605936 0.564604 0.532983 0.508993 0.490884 0.477273 0.467067 0.459436 0.453739 0.449499 0.446347 0.444014 0.442287 0.441019 0.440086 0.439406 0.438909 0.438551 0.438289 0.438101 0.437962 0.437863 0.437786 0.437729 0.437681 0.437642 0.437606 0.437575 0.437543 0.437513 0.437482 0.437452 0.43742 0.43739 0.437359 0.437329 0.4373 0.437275 0.437255 0.437242 0.436696 0.436708 0.436727 0.436751 0.436777 0.436805 0.436833 0.436861 0.436887 0.436915 0.436942 0.43697 0.436999 0.437032 0.437069 0.437116 0.437173 0.43725 0.43735 0.437489 0.437676 0.437934 0.438286 0.43877 0.439427 0.440324 0.441538 0.443183 0.445397 0.448381 0.452382 0.457747 0.464919 0.474495 0.487249 0.5042 0.526644 0.556227 0.594929 0.645021 0.7088 0.788103 0.883419 0.992847 1.11126 1.23058 1.34157 1.43662 1.51188 1.56756 1.60659 1.63295 1.65035 1.66173 1.66922 1.67423 1.67767 1.68015 1.68201 1.6835 1.68473 1.68581 1.68677 1.68766 1.68849 1.68927 1.69001 1.69072 1.6914 1.69205 1.69266 1.69326 1.69382 1.69436 1.69487 1.69536 1.69582 1.69626 1.69668 1.69707 1.69744 1.6978 1.69812 1.69843 1.69872 1.69899 1.69923 1.69946 1.69967 1.69986 1.70002 1.70018 1.70031 1.70043 1.70052 1.7006 1.70066 1.70071 1.70073 1.70074 1.70073 1.7007 1.70065 1.70059 1.70051 1.70041 1.70029 1.70016 1.7 1.69983 1.69963 1.69942 1.69919 1.69894 1.69866 1.69838 1.69806 1.69773 1.69737 1.697 1.69659 1.69617 1.69572 1.69526 1.69476 1.69424 1.69369 1.69313 1.69253 1.69191 1.69125 1.69057 1.68985 1.6891 1.68831 1.68748 1.68658 1.68561 1.68452 1.68328 1.68178 1.67989 1.67738 1.67389 1.66882 1.66123 1.64968 1.63205 1.60535 1.56586 1.50963 1.43377 1.33818 1.22687 1.1075 0.989325 0.880322 0.785521 0.706736 0.643425 0.593729 0.55535 0.526025 0.503786 0.486997 0.474373 0.464902 0.457817 0.452523 0.448582 0.44565 0.44348 0.441873 0.440693 0.439824 0.439191 0.438728 0.438393 0.438149 0.437973 0.437843 0.437749 0.437675 0.437619 0.437572 0.437532 0.437495 0.437461 0.437427 0.437394 0.437359 0.437325 0.43729 0.437256 0.437221 0.437187 0.437155 0.437128 0.437105 0.437092 0.436556 0.436569 0.43659 0.436617 0.436645 0.436676 0.436707 0.436738 0.436768 0.436799 0.436828 0.436859 0.43689 0.436925 0.436962 0.437009 0.437064 0.437137 0.437232 0.437362 0.437536 0.437777 0.438103 0.438553 0.439163 0.439995 0.441121 0.442646 0.444698 0.447462 0.451166 0.45613 0.46276 0.471608 0.483385 0.49903 0.519739 0.547044 0.582801 0.629189 0.688494 0.762734 0.852877 0.957868 1.07365 1.19305 1.30705 1.40737 1.48889 1.55059 1.59465 1.62481 1.64489 1.65809 1.66677 1.67254 1.67647 1.67926 1.68132 1.68293 1.68424 1.68537 1.68636 1.68728 1.68812 1.68891 1.68966 1.69038 1.69106 1.69171 1.69233 1.69293 1.6935 1.69405 1.69456 1.69506 1.69552 1.69597 1.69639 1.69679 1.69716 1.69752 1.69785 1.69816 1.69845 1.69872 1.69897 1.6992 1.69941 1.69961 1.69977 1.69993 1.70006 1.70018 1.70028 1.70036 1.70042 1.70047 1.70049 1.7005 1.70048 1.70046 1.70041 1.70035 1.70026 1.70017 1.70004 1.69991 1.69975 1.69958 1.69938 1.69917 1.69893 1.69868 1.6984 1.69811 1.69779 1.69745 1.69709 1.69671 1.6963 1.69588 1.69543 1.69496 1.69445 1.69393 1.69338 1.69281 1.6922 1.69157 1.69091 1.69023 1.6895 1.68874 1.68794 1.68709 1.68617 1.68517 1.68403 1.6827 1.68108 1.679 1.67617 1.67219 1.66633 1.65754 1.64415 1.6238 1.59327 1.54871 1.48644 1.40433 1.30354 1.18929 1.06994 0.954461 0.849932 0.760308 0.686573 0.627712 0.581697 0.546242 0.519178 0.498659 0.483167 0.471513 0.462764 0.456216 0.451321 0.447675 0.444961 0.442951 0.441464 0.44037 0.439565 0.438979 0.43855 0.43824 0.438013 0.43785 0.437728 0.437639 0.437569 0.437515 0.437468 0.437428 0.437389 0.437354 0.437317 0.437281 0.437244 0.437207 0.437168 0.43713 0.437092 0.437056 0.437021 0.436991 0.436967 0.436953 0.436429 0.436442 0.436464 0.436492 0.436523 0.436557 0.43659 0.436624 0.436657 0.43669 0.436722 0.436755 0.43