# vtk DataFile Version 3.0
Immiscible displacement
ASCII
DATASET RECTILINEAR_GRID
DIMENSIONS 200 200 1
X_COORDINATES 200 double
1 2 3 4 5 6 7 8 9 10 11 12 13 14 15 16 17 18 19 20 21 22 23 24 25 26 27 28 29 30 31 32 33 34 35 36 37 38 39 40 41 42 43 44 45 46 47 48 49 50 51 52 53 54 55 56 57 58 59 60 61 62 63 64 65 66 67 68 69 70 71 72 73 74 75 76 77 78 79 80 81 82 83 84 85 86 87 88 89 90 91 92 93 94 95 96 97 98 99 100 101 102 103 104 105 106 107 108 109 110 111 112 113 114 115 116 117 118 119 120 121 122 123 124 125 126 127 128 129 130 131 132 133 134 135 136 137 138 139 140 141 142 143 144 145 146 147 148 149 150 151 152 153 154 155 156 157 158 159 160 161 162 163 164 165 166 167 168 169 170 171 172 173 174 175 176 177 178 179 180 181 182 183 184 185 186 187 188 189 190 191 192 193 194 195 196 197 198 199 200 
Y_COORDINATES 200 double
1 2 3 4 5 6 7 8 9 10 11 12 13 14 15 16 17 18 19 20 21 22 23 24 25 26 27 28 29 30 31 32 33 34 35 36 37 38 39 40 41 42 43 44 45 46 47 48 49 50 51 52 53 54 55 56 57 58 59 60 61 62 63 64 65 66 67 68 69 70 71 72 73 74 75 76 77 78 79 80 81 82 83 84 85 86 87 88 89 90 91 92 93 94 95 96 97 98 99 100 101 102 103 104 105 106 107 108 109 110 111 112 113 114 115 116 117 118 119 120 121 122 123 124 125 126 127 128 129 130 131 132 133 134 135 136 137 138 139 140 141 142 143 144 145 146 147 148 149 150 151 152 153 154 155 156 157 158 159 160 161 162 163 164 165 166 167 168 169 170 171 172 173 174 175 176 177 178 179 180 181 182 183 184 185 186 187 188 189 190 191 192 193 194 195 196 197 198 199 200 
Z_COORDINATES 1 double
0
POINT_DATA 40000
SCALARS rho double 1
LOOKUP_TABLE default
0.430482 0.430499 0.430519 0.430533 0.430539 0.430536 0.430522 0.4305 0.43047 0.430436 0.430399 0.430362 0.43033 0.430307 0.430298 0.430312 0.430357 0.430446 0.430593 0.430819 0.43115 0.431622 0.43228 0.433186 0.434422 0.436098 0.438357 0.441395 0.445469 0.450926 0.458223 0.467973 0.480977 0.498296 0.521295 0.551709 0.59165 0.643542 0.709837 0.792435 0.891687 1.00518 1.12692 1.24782 1.35803 1.45006 1.52088 1.57169 1.6062 1.62874 1.64308 1.65209 1.6577 1.66121 1.66343 1.66486 1.66581 1.66647 1.66695 1.66733 1.66763 1.6679 1.66815 1.66837 1.66859 1.6688 1.66901 1.66921 1.6694 1.6696 1.66979 1.66998 1.67016 1.67034 1.67052 1.67069 1.67086 1.67103 1.67118 1.67134 1.67148 1.67163 1.67176 1.67189 1.67202 1.67213 1.67224 1.67235 1.67244 1.67253 1.6726 1.67268 1.67274 1.6728 1.67284 1.67288 1.67291 1.67293 1.67294 1.67294 1.67294 1.67292 1.6729 1.67287 1.67282 1.67278 1.67272 1.67266 1.67258 1.6725 1.67241 1.67231 1.67221 1.6721 1.67198 1.67186 1.67172 1.67159 1.67144 1.6713 1.67114 1.67099 1.67082 1.67066 1.67048 1.67031 1.67013 1.66995 1.66976 1.66957 1.66938 1.66919 1.66899 1.66879 1.66858 1.66836 1.66814 1.6679 1.66763 1.66733 1.66695 1.66648 1.66582 1.66487 1.66344 1.66122 1.65769 1.65206 1.64303 1.62863 1.606 1.57137 1.5204 1.4494 1.35719 1.24685 1.12589 1.00418 0.890786 0.791671 0.709217 0.643057 0.591279 0.551429 0.521085 0.498138 0.480856 0.467877 0.458143 0.450854 0.445399 0.441322 0.438277 0.43601 0.434323 0.433075 0.432155 0.431484 0.430998 0.430653 0.430413 0.430253 0.430152 0.430096 0.430072 0.430073 0.430089 0.430117 0.43015 0.430186 0.430222 0.430254 0.430281 0.430301 0.430313 0.430315 0.430309 0.430294 0.430275 0.430258 0.43051 0.430522 0.430536 0.430547 0.43055 0.430545 0.43053 0.430507 0.430477 0.430443 0.430405 0.430369 0.430336 0.430313 0.430305 0.430319 0.430364 0.430452 0.430598 0.430824 0.431154 0.431624 0.432278 0.433182 0.434411 0.436079 0.438327 0.44135 0.445403 0.450831 0.458088 0.467784 0.480714 0.497934 0.520799 0.551036 0.590745 0.642345 0.708287 0.790492 0.889353 1.00254 1.12414 1.24514 1.35566 1.44815 1.51945 1.5707 1.60554 1.62832 1.64282 1.65193 1.6576 1.66115 1.66339 1.66484 1.66579 1.66646 1.66694 1.66732 1.66763 1.6679 1.66815 1.66838 1.66859 1.66881 1.66901 1.66922 1.66941 1.66961 1.6698 1.66999 1.67017 1.67036 1.67053 1.67071 1.67087 1.67104 1.6712 1.67136 1.6715 1.67165 1.67178 1.67191 1.67203 1.67216 1.67226 1.67237 1.67246 1.67255 1.67263 1.6727 1.67276 1.67282 1.67286 1.67291 1.67293 1.67296 1.67296 1.67297 1.67296 1.67295 1.67292 1.67289 1.67285 1.6728 1.67274 1.67268 1.6726 1.67252 1.67243 1.67234 1.67223 1.67212 1.672 1.67188 1.67174 1.67161 1.67146 1.67132 1.67116 1.671 1.67083 1.67067 1.67049 1.67032 1.67014 1.66996 1.66977 1.66958 1.66939 1.66919 1.66899 1.66879 1.66858 1.66837 1.66814 1.6679 1.66763 1.66733 1.66695 1.66647 1.6658 1.66485 1.6634 1.66116 1.6576 1.6519 1.64276 1.62821 1.60534 1.57038 1.51898 1.44749 1.35482 1.24417 1.12312 1.00155 0.888459 0.789734 0.707673 0.641864 0.590377 0.550757 0.52059 0.497776 0.480593 0.467688 0.458007 0.450758 0.445331 0.441276 0.438246 0.43599 0.434311 0.433069 0.432153 0.431485 0.431001 0.430658 0.430418 0.43026 0.430159 0.430103 0.430079 0.43008 0.430096 0.430123 0.430157 0.430193 0.430228 0.430262 0.430289 0.43031 0.430322 0.430327 0.430322 0.430312 0.430297 0.430286 0.430554 0.43056 0.430568 0.430574 0.430572 0.430564 0.430546 0.430522 0.430491 0.430455 0.430417 0.430381 0.430348 0.430325 0.430316 0.43033 0.430374 0.430462 0.430607 0.43083 0.431157 0.431623 0.432271 0.433166 0.434383 0.436035 0.43826 0.441253 0.445263 0.450634 0.457813 0.467402 0.480189 0.497214 0.519819 0.549712 0.588974 0.640008 0.705268 0.786709 0.884811 0.997392 1.11871 1.23986 1.35097 1.44435 1.5166 1.56869 1.6042 1.62746 1.64228 1.65159 1.6574 1.66103 1.66331 1.66479 1.66576 1.66644 1.66693 1.66732 1.66763 1.6679 1.66815 1.66838 1.6686 1.66881 1.66902 1.66922 1.66942 1.66962 1.66981 1.67 1.67019 1.67037 1.67055 1.67073 1.67089 1.67106 1.67122 1.67138 1.67153 1.67167 1.67181 1.67194 1.67207 1.67219 1.67229 1.6724 1.67249 1.67259 1.67266 1.67274 1.6728 1.67286 1.6729 1.67294 1.67297 1.67299 1.673 1.67301 1.673 1.67299 1.67296 1.67293 1.67289 1.67284 1.67278 1.67272 1.67264 1.67256 1.67246 1.67237 1.67226 1.67215 1.67203 1.67191 1.67177 1.67164 1.67149 1.67134 1.67118 1.67103 1.67086 1.67069 1.67051 1.67034 1.67015 1.66997 1.66978 1.66959 1.6694 1.6692 1.669 1.6688 1.66858 1.66837 1.66814 1.6679 1.66763 1.66732 1.66694 1.66645 1.66577 1.6648 1.66332 1.66103 1.65739 1.65156 1.64222 1.62734 1.604 1.56837 1.51612 1.44369 1.35014 1.2389 1.11769 0.996414 0.883932 0.785964 0.704665 0.639536 0.588611 0.549438 0.519613 0.497058 0.480068 0.467306 0.457731 0.45056 0.44519 0.441177 0.438178 0.435944 0.434282 0.433052 0.432144 0.431482 0.431003 0.430663 0.430426 0.430269 0.430169 0.430114 0.430091 0.430092 0.430108 0.430136 0.430169 0.430206 0.430242 0.430275 0.430304 0.430327 0.430342 0.430349 0.430349 0.430344 0.430335 0.430328 0.430606 0.430609 0.430611 0.43061 0.430604 0.430591 0.43057 0.430543 0.43051 0.430473 0.430434 0.430397 0.430363 0.43034 0.430331 0.430344 0.430386 0.430473 0.430615 0.430835 0.431156 0.431615 0.432254 0.433135 0.434335 0.435962 0.438153 0.4411 0.445048 0.450335 0.457399 0.466833 0.47941 0.496153 0.518381 0.547774 0.586388 0.636604 0.700873 0.781201 0.87819 0.989863 1.11072 1.23207 1.34401 1.43865 1.51229 1.56564 1.60215 1.62612 1.64143 1.65106 1.65707 1.66082 1.66319 1.66471 1.66571 1.66641 1.66691 1.6673 1.66762 1.6679 1.66814 1.66838 1.6686 1.66882 1.66902 1.66923 1.66943 1.66963 1.66982 1.67002 1.6702 1.67039 1.67057 1.67075 1.67092 1.67109 1.67125 1.67141 1.67156 1.6717 1.67184 1.67198 1.6721 1.67222 1.67233 1.67244 1.67253 1.67263 1.6727 1.67278 1.67284 1.6729 1.67294 1.67299 1.67301 1.67304 1.67305 1.67305 1.67304 1.67303 1.673 1.67298 1.67293 1.67288 1.67282 1.67276 1.67268 1.6726 1.6725 1.67241 1.6723 1.67219 1.67206 1.67194 1.6718 1.67167 1.67152 1.67137 1.67121 1.67105 1.67088 1.67071 1.67053 1.67036 1.67017 1.66999 1.66979 1.6696 1.6694 1.66921 1.669 1.6688 1.66858 1.66837 1.66814 1.66789 1.66762 1.6673 1.66691 1.66642 1.66572 1.66472 1.6632 1.66083 1.65706 1.65103 1.64137 1.626 1.60194 1.56532 1.51181 1.43799 1.34318 1.23112 1.10973 0.988904 0.877331 0.780476 0.700286 0.636143 0.586035 0.547506 0.518178 0.495999 0.47929 0.466736 0.457316 0.450259 0.444973 0.441022 0.438069 0.435869 0.434231 0.433019 0.432125 0.431473 0.431001 0.430666 0.430433 0.430279 0.430181 0.430128 0.430105 0.430107 0.430123 0.430152 0.430186 0.430223 0.43026 0.430296 0.430326 0.430351 0.430369 0.430381 0.430386 0.430386 0.430383 0.43038 0.430664 0.430663 0.430661 0.430655 0.430643 0.430625 0.4306 0.43057 0.430534 0.430496 0.430455 0.430417 0.430382 0.430357 0.430347 0.430358 0.430399 0.430482 0.43062 0.430835 0.431149 0.431599 0.432225 0.433088 0.434264 0.435858 0.438005 0.440892 0.444759 0.449936 0.456852 0.466086 0.478392 0.494773 0.516516 0.54527 0.583052 0.632214 0.695209 0.774094 0.869623 0.980082 1.1003 1.22182 1.33478 1.43104 1.50649 1.5615 1.59934 1.62428 1.64026 1.65032 1.65661 1.66054 1.66301 1.6646 1.66564 1.66636 1.66688 1.66728 1.6676 1.66789 1.66813 1.66837 1.66859 1.66882 1.66902 1.66923 1.66943 1.66964 1.66983 1.67003 1.67022 1.67041 1.67059 1.67077 1.67094 1.67111 1.67127 1.67143 1.67158 1.67173 1.67187 1.67201 1.67213 1.67226 1.67237 1.67248 1.67257 1.67267 1.67274 1.67282 1.67288 1.67294 1.67299 1.67303 1.67306 1.67308 1.67309 1.6731 1.67309 1.67308 1.67305 1.67302 1.67297 1.67293 1.67286 1.6728 1.67272 1.67264 1.67254 1.67245 1.67234 1.67222 1.6721 1.67197 1.67183 1.6717 1.67155 1.6714 1.67123 1.67107 1.6709 1.67073 1.67055 1.67037 1.67018 1.67 1.6698 1.66961 1.66941 1.66921 1.669 1.6688 1.66858 1.66836 1.66813 1.66788 1.6676 1.66728 1.66688 1.66637 1.66565 1.66461 1.66301 1.66054 1.6566 1.65029 1.64019 1.62416 1.59913 1.56117 1.506 1.43038 1.33396 1.22088 1.09932 0.979148 0.86879 0.773392 0.694641 0.631769 0.58271 0.54501 0.516319 0.494622 0.478274 0.465989 0.456768 0.449859 0.444683 0.440812 0.437919 0.435763 0.434158 0.43297 0.432094 0.431455 0.430993 0.430665 0.430438 0.430287 0.430193 0.430142 0.430121 0.430124 0.430142 0.430171 0.430206 0.430245 0.430284 0.430321 0.430353 0.430382 0.430404 0.43042 0.43043 0.430436 0.430438 0.430438 0.430725 0.430722 0.430715 0.430704 0.430687 0.430664 0.430636 0.430602 0.430563 0.430522 0.430479 0.430439 0.430402 0.430376 0.430363 0.430372 0.43041 0.43049 0.430623 0.430831 0.431136 0.431573 0.432183 0.433024 0.43417 0.435724 0.437817 0.440631 0.4444 0.449445 0.456182 0.465175 0.477157 0.493102 0.514265 0.542251 0.579035 0.626932 0.688387 0.76552 0.859255 0.968185 1.08753 1.20916 1.32328 1.42146 1.49912 1.5562 1.59571 1.6219 1.63872 1.64935 1.65599 1.66015 1.66277 1.66444 1.66554 1.6663 1.66683 1.66725 1.66758 1.66787 1.66812 1.66836 1.66859 1.66881 1.66902 1.66923 1.66944 1.66964 1.66984 1.67004 1.67023 1.67042 1.6706 1.67078 1.67096 1.67113 1.67129 1.67146 1.67161 1.67176 1.6719 1.67204 1.67217 1.67229 1.6724 1.67251 1.67261 1.6727 1.67278 1.67286 1.67292 1.67299 1.67303 1.67307 1.6731 1.67313 1.67313 1.67314 1.67313 1.67312 1.67309 1.67306 1.67302 1.67297 1.6729 1.67284 1.67276 1.67268 1.67258 1.67248 1.67237 1.67226 1.67213 1.672 1.67186 1.67172 1.67157 1.67142 1.67126 1.67109 1.67092 1.67075 1.67057 1.67039 1.67019 1.67001 1.66981 1.66962 1.66941 1.66921 1.669 1.6688 1.66858 1.66835 1.66812 1.66786 1.66758 1.66725 1.66684 1.6663 1.66555 1.66445 1.66277 1.66015 1.65598 1.64932 1.63866 1.62177 1.5955 1.55586 1.49863 1.4208 1.32247 1.20824 1.08658 0.967279 0.858451 0.764845 0.687843 0.626505 0.578707 0.542001 0.514074 0.492956 0.477041 0.465079 0.456098 0.449366 0.444322 0.440549 0.437729 0.435627 0.434062 0.432904 0.43205 0.431428 0.430978 0.430659 0.430439 0.430294 0.430203 0.430155 0.430137 0.430142 0.430161 0.430193 0.430229 0.43027 0.43031 0.43035 0.430386 0.430417 0.430443 0.430464 0.430479 0.43049 0.430496 0.430499 0.430788 0.430783 0.430772 0.430756 0.430734 0.430707 0.430674 0.430637 0.430595 0.430551 0.430505 0.430463 0.430424 0.430395 0.43038 0.430386 0.43042 0.430494 0.430621 0.430821 0.431115 0.431538 0.432128 0.432943 0.434054 0.435561 0.437592 0.440321 0.443977 0.448869 0.4554 0.464116 0.475726 0.491173 0.51167 0.538777 0.574414 0.620856 0.680532 0.755622 0.847237 0.954312 1.07253 1.19415 1.30949 1.40985 1.4901 1.54965 1.5912 1.6189 1.63679 1.64812 1.65522 1.65966 1.66245 1.66424 1.66541 1.66621 1.66677 1.6672 1.66755 1.66784 1.6681 1.66835 1.66858 1.6688 1.66901 1.66923 1.66943 1.66964 1.66984 1.67004 1.67023 1.67043 1.67061 1.6708 1.67097 1.67115 1.67131 1.67148 1.67163 1.67178 1.67192 1.67207 1.67219 1.67232 1.67243 1.67255 1.67264 1.67274 1.67282 1.6729 1.67296 1.67302 1.67307 1.67311 1.67314 1.67317 1.67317 1.67318 1.67317 1.67316 1.67313 1.6731 1.67305 1.67301 1.67294 1.67288 1.67279 1.67271 1.67261 1.67252 1.6724 1.67229 1.67216 1.67203 1.67189 1.67175 1.67159 1.67144 1.67127 1.67111 1.67093 1.67076 1.67058 1.67039 1.6702 1.67001 1.66981 1.66962 1.66941 1.66921 1.669 1.66879 1.66856 1.66834 1.6681 1.66784 1.66755 1.66721 1.66678 1.66622 1.66542 1.66425 1.66246 1.65966 1.6552 1.64809 1.63672 1.61877 1.59098 1.54931 1.4896 1.40918 1.30868 1.19324 1.0716 0.953438 0.846466 0.754977 0.680013 0.620449 0.574102 0.538538 0.511487 0.491031 0.475613 0.464022 0.455317 0.44879 0.443898 0.440238 0.437502 0.435462 0.433944 0.432821 0.431993 0.43139 0.430955 0.430648 0.430436 0.430297 0.430211 0.430167 0.430152 0.43016 0.430182 0.430215 0.430254 0.430297 0.43034 0.430382 0.430421 0.430456 0.430486 0.430512 0.430531 0.430546 0.430556 0.430561 0.430851 0.430844 0.43083 0.43081 0.430784 0.430752 0.430715 0.430674 0.430628 0.430581 0.430533 0.430487 0.430446 0.430414 0.430396 0.430398 0.430427 0.430496 0.430615 0.430805 0.431087 0.431493 0.43206 0.432846 0.433918 0.435372 0.437333 0.439968 0.443497 0.448218 0.454521 0.462929 0.474126 0.489018 0.508776 0.534906 0.56927 0.614087 0.671769 0.74455 0.83373 0.938617 1.0554 1.17682 1.29339 1.39612 1.47931 1.54174 1.58571 1.61524 1.6344 1.64659 1.65425 1.65905 1.66206 1.66399 1.66525 1.6661 1.6667 1.66715 1.66751 1.66781 1.66808 1.66833 1.66856 1.66879 1.669 1.66922 1.66943 1.66964 1.66984 1.67004 1.67023 1.67043 1.67061 1.6708 1.67098 1.67116 1.67132 1.67149 1.67165 1.6718 1.67194 1.67209 1.67222 1.67234 1.67246 1.67257 1.67267 1.67277 1.67285 1.67293 1.67299 1.67306 1.6731 1.67315 1.67317 1.6732 1.67321 1.67322 1.67321 1.67319 1.67317 1.67314 1.67309 1.67304 1.67297 1.67291 1.67283 1.67274 1.67264 1.67254 1.67243 1.67231 1.67218 1.67205 1.67191 1.67177 1.67161 1.67145 1.67129 1.67112 1.67094 1.67077 1.67058 1.6704 1.6702 1.67001 1.66981 1.66961 1.6694 1.6692 1.66898 1.66877 1.66855 1.66832 1.66807 1.66781 1.66751 1.66715 1.6667 1.66611 1.66526 1.664 1.66207 1.65905 1.65423 1.64656 1.63433 1.6151 1.58548 1.54139 1.47881 1.39546 1.29259 1.17593 1.0545 0.937778 0.832996 0.743938 0.671278 0.613703 0.568974 0.53468 0.508603 0.488883 0.474017 0.462837 0.454438 0.448139 0.443417 0.439883 0.437241 0.435271 0.433806 0.432722 0.431924 0.431343 0.430925 0.430631 0.430428 0.430297 0.430217 0.430178 0.430167 0.430178 0.430203 0.430239 0.43028 0.430325 0.430371 0.430416 0.430458 0.430497 0.430532 0.430561 0.430585 0.430604 0.430617 0.430623 0.430913 0.430904 0.430887 0.430864 0.430833 0.430798 0.430757 0.430712 0.430663 0.430612 0.430561 0.430512 0.430468 0.430433 0.43041 0.430408 0.430432 0.430494 0.430605 0.430784 0.431051 0.431438 0.431982 0.432735 0.433763 0.43516 0.437043 0.439576 0.442967 0.447503 0.453557 0.461631 0.47238 0.486672 0.50563 0.530701 0.563682 0.606731 0.66223 0.732459 0.818906 0.921262 1.03627 1.15724 1.27495 1.38019 1.46663 1.53233 1.57911 1.6108 1.6315 1.64472 1.65306 1.65829 1.66158 1.66368 1.66504 1.66596 1.6666 1.66708 1.66745 1.66777 1.66804 1.6683 1.66853 1.66876 1.66898 1.6692 1.66941 1.66962 1.66983 1.67003 1.67023 1.67043 1.67061 1.6708 1.67098 1.67116 1.67133 1.6715 1.67165 1.67181 1.67196 1.6721 1.67223 1.67236 1.67248 1.67259 1.67269 1.67279 1.67287 1.67295 1.67302 1.67308 1.67313 1.67317 1.6732 1.67323 1.67324 1.67325 1.67323 1.67322 1.67319 1.67316 1.67312 1.67307 1.673 1.67293 1.67285 1.67277 1.67266 1.67256 1.67245 1.67233 1.6722 1.67207 1.67192 1.67178 1.67162 1.67146 1.67129 1.67113 1.67095 1.67077 1.67058 1.67039 1.6702 1.67 1.6698 1.6696 1.66939 1.66918 1.66897 1.66875 1.66852 1.66829 1.66804 1.66777 1.66745 1.66708 1.66661 1.66597 1.66505 1.66369 1.66159 1.65829 1.65304 1.64468 1.63142 1.61066 1.57888 1.53197 1.46612 1.37952 1.27415 1.15637 1.03541 0.920462 0.818211 0.731882 0.661769 0.606371 0.563404 0.530488 0.505467 0.486544 0.472275 0.461542 0.453476 0.447424 0.442886 0.43949 0.43695 0.435057 0.433649 0.432609 0.431843 0.431287 0.430887 0.430608 0.430416 0.430294 0.430221 0.430187 0.43018 0.430195 0.430223 0.430262 0.430306 0.430354 0.430403 0.430451 0.430497 0.43054 0.430577 0.430611 0.430639 0.430661 0.430676 0.430685 0.430973 0.430963 0.430943 0.430917 0.430883 0.430844 0.430799 0.43075 0.430697 0.430643 0.430589 0.430537 0.430489 0.43045 0.430423 0.430416 0.430434 0.430489 0.43059 0.430758 0.431009 0.431376 0.431893 0.432611 0.433593 0.434928 0.436729 0.439151 0.442395 0.446734 0.452524 0.460243 0.470516 0.48417 0.502278 0.526223 0.557731 0.598893 0.652047 0.719508 0.802943 0.902426 1.01529 1.13548 1.25415 1.36194 1.45189 1.52126 1.57127 1.60548 1.628 1.64246 1.6516 1.65736 1.66099 1.6633 1.66479 1.66579 1.66648 1.667 1.66739 1.66772 1.668 1.66826 1.6685 1.66874 1.66896 1.66918 1.66939 1.66961 1.66981 1.67002 1.67022 1.67042 1.6706 1.6708 1.67098 1.67116 1.67133 1.6715 1.67166 1.67182 1.67196 1.67211 1.67224 1.67237 1.67249 1.67261 1.67271 1.67281 1.67289 1.67297 1.67304 1.6731 1.67315 1.6732 1.67322 1.67325 1.67326 1.67327 1.67326 1.67325 1.67322 1.67319 1.67314 1.67309 1.67302 1.67295 1.67287 1.67278 1.67268 1.67258 1.67246 1.67234 1.67221 1.67208 1.67193 1.67178 1.67162 1.67147 1.67129 1.67113 1.67094 1.67076 1.67057 1.67039 1.67019 1.66999 1.66979 1.66958 1.66937 1.66916 1.66894 1.66873 1.66849 1.66826 1.668 1.66772 1.66739 1.667 1.66649 1.6658 1.6648 1.66331 1.66099 1.65736 1.65159 1.64242 1.62791 1.60533 1.57103 1.52089 1.45137 1.36127 1.25336 1.13464 1.01446 0.901666 0.802287 0.718968 0.651616 0.598557 0.557473 0.526025 0.502125 0.484049 0.470416 0.460157 0.452444 0.446656 0.442314 0.439065 0.436634 0.434823 0.433477 0.432483 0.431752 0.431223 0.430843 0.430579 0.4304 0.430287 0.430221 0.430194 0.430192 0.43021 0.430242 0.430285 0.430332 0.430383 0.430435 0.430487 0.430536 0.430582 0.430623 0.43066 0.430691 0.430717 0.430735 0.430745 0.431031 0.431019 0.430998 0.430968 0.430931 0.430888 0.43084 0.430787 0.430731 0.430674 0.430616 0.43056 0.430509 0.430466 0.430435 0.430422 0.430434 0.43048 0.430572 0.430726 0.430961 0.431306 0.431795 0.432476 0.433409 0.434679 0.436393 0.4387 0.44179 0.445923 0.451435 0.458783 0.468557 0.481546 0.498765 0.521533 0.551499 0.590676 0.641352 0.705859 0.786023 0.882297 0.992623 1.11164 1.23099 1.34128 1.43493 1.50834 1.56201 1.59914 1.62379 1.63972 1.64985 1.65624 1.66026 1.66283 1.66448 1.66558 1.66634 1.66689 1.66731 1.66766 1.66795 1.66822 1.66847 1.6687 1.66893 1.66915 1.66937 1.66958 1.66979 1.67 1.6702 1.6704 1.67059 1.67078 1.67097 1.67115 1.67132 1.6715 1.67166 1.67182 1.67196 1.67211 1.67224 1.67238 1.6725 1.67261 1.67272 1.67282 1.6729 1.67298 1.67305 1.67312 1.67316 1.67321 1.67324 1.67327 1.67327 1.67328 1.67327 1.67326 1.67323 1.6732 1.67315 1.6731 1.67303 1.67296 1.67288 1.67279 1.67269 1.67259 1.67247 1.67235 1.67221 1.67208 1.67193 1.67178 1.67162 1.67146 1.67129 1.67112 1.67093 1.67075 1.67056 1.67037 1.67017 1.66997 1.66977 1.66956 1.66935 1.66914 1.66891 1.66869 1.66846 1.66822 1.66795 1.66766 1.66731 1.6669 1.66635 1.66559 1.66449 1.66284 1.66027 1.65623 1.64983 1.63968 1.6237 1.59898 1.56175 1.50795 1.4344 1.34061 1.23022 1.11083 0.99183 0.88158 0.78541 0.705356 0.640953 0.590366 0.55126 0.521349 0.498623 0.481432 0.468463 0.4587 0.451358 0.445845 0.441709 0.438613 0.436298 0.434573 0.433291 0.432346 0.431653 0.431152 0.430794 0.430546 0.43038 0.430277 0.430219 0.430198 0.430202 0.430225 0.430261 0.430307 0.430357 0.430412 0.430467 0.430522 0.430574 0.430623 0.430668 0.430708 0.430743 0.430771 0.430791 0.430802 0.431086 0.431073 0.431049 0.431017 0.430977 0.430931 0.430879 0.430824 0.430764 0.430704 0.430642 0.430583 0.430528 0.430481 0.430444 0.430426 0.430431 0.430469 0.43055 0.43069 0.430908 0.431231 0.43169 0.432332 0.433214 0.434417 0.436041 0.438229 0.441159 0.445078 0.450305 0.457269 0.46653 0.478832 0.495135 0.516688 0.545061 0.582182 0.630274 0.691671 0.768336 0.861076 0.968445 1.08584 1.2055 1.31812 1.41558 1.49335 1.55112 1.5916 1.61875 1.63643 1.64772 1.65487 1.65938 1.66226 1.6641 1.66533 1.66616 1.66677 1.66722 1.66759 1.66789 1.66817 1.66842 1.66866 1.66889 1.66912 1.66934 1.66955 1.66976 1.66997 1.67017 1.67038 1.67057 1.67077 1.67095 1.67114 1.67131 1.67148 1.67165 1.67181 1.67196 1.67211 1.67224 1.67238 1.67249 1.67261 1.67272 1.67282 1.6729 1.67299 1.67306 1.67312 1.67317 1.67322 1.67325 1.67327 1.67328 1.67329 1.67328 1.67327 1.67324 1.67321 1.67316 1.67311 1.67304 1.67297 1.67288 1.6728 1.67269 1.67259 1.67247 1.67235 1.67221 1.67208 1.67193 1.67178 1.67161 1.67145 1.67128 1.6711 1.67092 1.67074 1.67054 1.67035 1.67015 1.66995 1.66974 1.66953 1.66932 1.6691 1.66888 1.66865 1.66841 1.66816 1.66789 1.66759 1.66722 1.66677 1.66617 1.66534 1.66412 1.66226 1.65939 1.65486 1.64769 1.63638 1.61865 1.59143 1.55085 1.49295 1.41504 1.31745 1.20474 1.08505 0.967692 0.860403 0.767765 0.691206 0.629907 0.581897 0.544842 0.51652 0.495003 0.478726 0.466441 0.45719 0.450229 0.445002 0.441078 0.438141 0.435945 0.43431 0.433095 0.432201 0.431546 0.431074 0.430739 0.430509 0.430356 0.430263 0.430215 0.4302 0.430209 0.430238 0.430278 0.430327 0.430382 0.430439 0.430498 0.430555 0.430611 0.430663 0.430711 0.430755 0.430792 0.430822 0.430844 0.430856 0.431136 0.431123 0.431097 0.431063 0.431021 0.430972 0.430917 0.430858 0.430796 0.430732 0.430667 0.430604 0.430545 0.430493 0.430452 0.430428 0.430425 0.430454 0.430524 0.430651 0.430851 0.43115 0.431579 0.432181 0.433011 0.434144 0.435677 0.437742 0.440509 0.44421 0.449145 0.455719 0.464457 0.476059 0.491429 0.511745 0.538491 0.573506 0.618939 0.677102 0.75007 0.838974 0.942965 1.05823 1.17774 1.2924 1.39366 1.47608 1.53837 1.58267 1.61273 1.63246 1.64514 1.65321 1.65831 1.66156 1.66365 1.66502 1.66595 1.66662 1.66711 1.6675 1.66782 1.66811 1.66837 1.66862 1.66885 1.66908 1.6693 1.66952 1.66973 1.66994 1.67014 1.67035 1.67054 1.67074 1.67093 1.67111 1.67129 1.67146 1.67163 1.67179 1.67194 1.67209 1.67223 1.67236 1.67249 1.67261 1.67271 1.67281 1.6729 1.67298 1.67305 1.67312 1.67317 1.67321 1.67324 1.67327 1.67328 1.67329 1.67328 1.67327 1.67324 1.6732 1.67316 1.6731 1.67304 1.67297 1.67288 1.67279 1.67269 1.67258 1.67246 1.67234 1.6722 1.67206 1.67191 1.67176 1.6716 1.67143 1.67126 1.67108 1.6709 1.67071 1.67052 1.67032 1.67012 1.66992 1.66971 1.6695 1.66928 1.66906 1.66884 1.66861 1.66836 1.66811 1.66782 1.6675 1.66711 1.66662 1.66596 1.66504 1.66366 1.66157 1.65831 1.6532 1.64512 1.6324 1.61262 1.58249 1.53809 1.47566 1.39311 1.29173 1.17699 1.05748 0.942253 0.838345 0.749542 0.676675 0.618603 0.573246 0.538291 0.511591 0.491308 0.475961 0.464374 0.455643 0.449072 0.444136 0.440429 0.437655 0.43558 0.434036 0.432891 0.432049 0.431433 0.430992 0.43068 0.430468 0.430329 0.430248 0.430208 0.4302 0.430216 0.430249 0.430293 0.430347 0.430404 0.430466 0.430527 0.430588 0.430646 0.430702 0.430752 0.430798 0.430838 0.43087 0.430894 0.430907 0.431184 0.431169 0.431142 0.431106 0.431061 0.43101 0.430953 0.430891 0.430825 0.430758 0.43069 0.430624 0.43056 0.430504 0.430458 0.430428 0.430418 0.430438 0.430496 0.430609 0.43079 0.431066 0.431463 0.432026 0.432802 0.433865 0.435305 0.437247 0.439849 0.443329 0.44797 0.454149 0.462359 0.473256 0.487686 0.506754 0.531858 0.564741 0.607465 0.662306 0.731415 0.816209 0.916407 1.02901 1.14779 1.26407 1.36901 1.45626 1.52351 1.57212 1.60553 1.62768 1.64202 1.65119 1.657 1.66071 1.66309 1.66465 1.6657 1.66644 1.66697 1.66739 1.66774 1.66804 1.66831 1.66856 1.6688 1.66903 1.66925 1.66948 1.66969 1.6699 1.67011 1.67031 1.67051 1.67071 1.6709 1.67108 1.67126 1.67144 1.6716 1.67177 1.67192 1.67207 1.67221 1.67235 1.67247 1.67259 1.67269 1.6728 1.67289 1.67297 1.67304 1.67311 1.67316 1.67321 1.67324 1.67326 1.67327 1.67328 1.67327 1.67326 1.67323 1.6732 1.67315 1.67309 1.67302 1.67295 1.67287 1.67278 1.67267 1.67256 1.67244 1.67232 1.67218 1.67204 1.67189 1.67174 1.67157 1.67141 1.67123 1.67106 1.67087 1.67068 1.67048 1.67029 1.67008 1.66988 1.66967 1.66946 1.66924 1.66902 1.66879 1.66855 1.6683 1.66804 1.66774 1.6674 1.66698 1.66644 1.66571 1.66466 1.6631 1.66072 1.65701 1.65118 1.64199 1.62762 1.6054 1.57191 1.5232 1.45583 1.36845 1.26341 1.14706 1.02829 0.915738 0.815626 0.73093 0.661917 0.60716 0.564506 0.531677 0.506614 0.487576 0.473166 0.462282 0.454078 0.447899 0.443256 0.439769 0.437159 0.435208 0.433757 0.432681 0.431892 0.431317 0.430906 0.430618 0.430424 0.430299 0.430229 0.430198 0.430198 0.43022 0.430258 0.430307 0.430364 0.430426 0.43049 0.430554 0.430618 0.430679 0.430738 0.430791 0.430839 0.430881 0.430915 0.43094 0.430953 0.431227 0.431211 0.431184 0.431146 0.431099 0.431046 0.430986 0.430921 0.430853 0.430783 0.430711 0.430641 0.430574 0.430513 0.430462 0.430425 0.430408 0.430419 0.430466 0.430564 0.430727 0.430979 0.431345 0.431867 0.43259 0.433583 0.434929 0.436747 0.439183 0.442444 0.446789 0.452574 0.460258 0.47045 0.483941 0.501763 0.525225 0.555971 0.595966 0.647429 0.712556 0.793004 0.889014 0.998396 1.11581 1.23317 1.3415 1.43366 1.50623 1.55965 1.59692 1.62192 1.63824 1.64873 1.65541 1.65967 1.66241 1.6642 1.66539 1.66622 1.66681 1.66727 1.66764 1.66796 1.66823 1.6685 1.66874 1.66898 1.6692 1.66943 1.66964 1.66986 1.67006 1.67027 1.67047 1.67067 1.67086 1.67105 1.67122 1.6714 1.67157 1.67174 1.67189 1.67204 1.67218 1.67232 1.67244 1.67256 1.67267 1.67278 1.67286 1.67295 1.67302 1.67309 1.67314 1.67319 1.67322 1.67324 1.67325 1.67326 1.67325 1.67324 1.67321 1.67318 1.67313 1.67307 1.673 1.67293 1.67284 1.67275 1.67265 1.67254 1.67242 1.67229 1.67215 1.67201 1.67186 1.67171 1.67154 1.67138 1.6712 1.67102 1.67083 1.67064 1.67044 1.67025 1.67004 1.66984 1.66962 1.66941 1.66919 1.66896 1.66873 1.66849 1.66823 1.66796 1.66764 1.66728 1.66682 1.66623 1.6654 1.66421 1.66242 1.65968 1.65541 1.64871 1.6382 1.62184 1.59679 1.55943 1.5059 1.43321 1.34093 1.2325 1.1151 0.99771 0.888389 0.792466 0.712112 0.647076 0.59569 0.555759 0.525063 0.501638 0.483842 0.470368 0.460186 0.452507 0.446721 0.442372 0.439105 0.436659 0.434831 0.433473 0.432468 0.431732 0.431197 0.430817 0.430553 0.430377 0.430268 0.430209 0.430187 0.430195 0.430222 0.430266 0.430319 0.43038 0.430445 0.430513 0.43058 0.430647 0.43071 0.430771 0.430827 0.430877 0.43092 0.430956 0.430982 0.430996 0.431266 0.43125 0.431221 0.431182 0.431133 0.431078 0.431016 0.430949 0.430878 0.430805 0.43073 0.430657 0.430586 0.430521 0.430464 0.430421 0.430397 0.430398 0.430434 0.430517 0.430662 0.43089 0.431225 0.431706 0.432376 0.433299 0.434553 0.436247 0.43852 0.441561 0.445614 0.451009 0.45817 0.467666 0.480228 0.496816 0.518651 0.547273 0.584543 0.632607 0.693671 0.769581 0.861044 0.966646 1.08199 1.19974 1.31103 1.40805 1.48622 1.54497 1.58664 1.61497 1.63364 1.64572 1.65345 1.6584 1.66157 1.66364 1.66501 1.66595 1.66662 1.66713 1.66753 1.66786 1.66815 1.66842 1.66867 1.66891 1.66914 1.66937 1.66958 1.6698 1.67001 1.67022 1.67042 1.67062 1.67081 1.671 1.67118 1.67136 1.67153 1.6717 1.67185 1.67201 1.67215 1.67228 1.67241 1.67253 1.67264 1.67274 1.67283 1.67292 1.67299 1.67306 1.67311 1.67316 1.67319 1.67322 1.67323 1.67324 1.67323 1.67321 1.67318 1.67315 1.6731 1.67305 1.67298 1.6729 1.67281 1.67272 1.67262 1.67251 1.67238 1.67226 1.67212 1.67198 1.67182 1.67167 1.6715 1.67133 1.67115 1.67098 1.67078 1.6706 1.6704 1.6702 1.66999 1.66978 1.66957 1.66935 1.66913 1.6689 1.66866 1.66842 1.66815 1.66786 1.66753 1.66713 1.66663 1.66596 1.66502 1.66365 1.66158 1.65841 1.65345 1.6457 1.63359 1.61488 1.58649 1.54473 1.48587 1.40758 1.31046 1.19909 1.08131 0.965998 0.860463 0.769088 0.693269 0.632289 0.584297 0.547084 0.518507 0.496704 0.480139 0.467591 0.458104 0.450945 0.445549 0.441491 0.438442 0.43616 0.434455 0.433189 0.432254 0.431571 0.431076 0.430727 0.430487 0.43033 0.430234 0.430187 0.430175 0.430189 0.430223 0.430272 0.430329 0.430394 0.430463 0.430533 0.430604 0.430673 0.430739 0.430802 0.430859 0.430912 0.430957 0.430993 0.43102 0.431035 0.4313 0.431284 0.431254 0.431214 0.431164 0.431107 0.431043 0.430974 0.4309 0.430825 0.430747 0.43067 0.430595 0.430526 0.430464 0.430416 0.430384 0.430376 0.430401 0.43047 0.430596 0.4308 0.431105 0.431546 0.432164 0.433017 0.434179 0.435751 0.437863 0.440688 0.444454 0.449465 0.456113 0.464924 0.476574 0.491951 0.512187 0.538717 0.573293 0.617968 0.67493 0.746161 0.832764 0.934051 1.04659 1.16394 1.27758 1.37921 1.46318 1.52771 1.57437 1.60656 1.62802 1.64203 1.65104 1.65683 1.66054 1.66296 1.66455 1.66563 1.66639 1.66696 1.66739 1.66775 1.66806 1.66834 1.6686 1.66884 1.66907 1.6693 1.66952 1.66974 1.66995 1.67016 1.67036 1.67057 1.67076 1.67095 1.67113 1.67131 1.67148 1.67165 1.6718 1.67196 1.6721 1.67224 1.67236 1.67249 1.6726 1.6727 1.67279 1.67288 1.67295 1.67302 1.67307 1.67312 1.67315 1.67318 1.67319 1.6732 1.67319 1.67317 1.67314 1.67311 1.67306 1.67301 1.67294 1.67286 1.67277 1.67268 1.67257 1.67247 1.67234 1.67221 1.67207 1.67193 1.67178 1.67162 1.67145 1.67128 1.6711 1.67092 1.67073 1.67054 1.67034 1.67014 1.66993 1.66972 1.66951 1.66929 1.66906 1.66883 1.66859 1.66834 1.66806 1.66775 1.66739 1.66696 1.6664 1.66564 1.66456 1.66297 1.66055 1.65683 1.65104 1.642 1.62797 1.60646 1.5742 1.52745 1.4628 1.37872 1.27699 1.1633 1.04594 0.933442 0.832228 0.745711 0.674567 0.617683 0.573074 0.53855 0.51206 0.491853 0.476495 0.464857 0.456052 0.449405 0.444392 0.44062 0.437786 0.435665 0.434081 0.432907 0.43204 0.431409 0.430955 0.430637 0.43042 0.430281 0.4302 0.430164 0.430161 0.430183 0.430222 0.430276 0.430338 0.430407 0.430478 0.430552 0.430625 0.430696 0.430765 0.43083 0.430889 0.430943 0.430989 0.431027 0.431055 0.43107 0.431331 0.431314 0.431284 0.431242 0.431191 0.431133 0.431067 0.430996 0.43092 0.430842 0.430762 0.430682 0.430603 0.43053 0.430463 0.430409 0.430369 0.430353 0.43