# vtk DataFile Version 3.0
Immiscible displacement
ASCII
DATASET RECTILINEAR_GRID
DIMENSIONS 200 200 1
X_COORDINATES 200 double
1 2 3 4 5 6 7 8 9 10 11 12 13 14 15 16 17 18 19 20 21 22 23 24 25 26 27 28 29 30 31 32 33 34 35 36 37 38 39 40 41 42 43 44 45 46 47 48 49 50 51 52 53 54 55 56 57 58 59 60 61 62 63 64 65 66 67 68 69 70 71 72 73 74 75 76 77 78 79 80 81 82 83 84 85 86 87 88 89 90 91 92 93 94 95 96 97 98 99 100 101 102 103 104 105 106 107 108 109 110 111 112 113 114 115 116 117 118 119 120 121 122 123 124 125 126 127 128 129 130 131 132 133 134 135 136 137 138 139 140 141 142 143 144 145 146 147 148 149 150 151 152 153 154 155 156 157 158 159 160 161 162 163 164 165 166 167 168 169 170 171 172 173 174 175 176 177 178 179 180 181 182 183 184 185 186 187 188 189 190 191 192 193 194 195 196 197 198 199 200 
Y_COORDINATES 200 double
1 2 3 4 5 6 7 8 9 10 11 12 13 14 15 16 17 18 19 20 21 22 23 24 25 26 27 28 29 30 31 32 33 34 35 36 37 38 39 40 41 42 43 44 45 46 47 48 49 50 51 52 53 54 55 56 57 58 59 60 61 62 63 64 65 66 67 68 69 70 71 72 73 74 75 76 77 78 79 80 81 82 83 84 85 86 87 88 89 90 91 92 93 94 95 96 97 98 99 100 101 102 103 104 105 106 107 108 109 110 111 112 113 114 115 116 117 118 119 120 121 122 123 124 125 126 127 128 129 130 131 132 133 134 135 136 137 138 139 140 141 142 143 144 145 146 147 148 149 150 151 152 153 154 155 156 157 158 159 160 161 162 163 164 165 166 167 168 169 170 171 172 173 174 175 176 177 178 179 180 181 182 183 184 185 186 187 188 189 190 191 192 193 194 195 196 197 198 199 200 
Z_COORDINATES 1 double
0
POINT_DATA 40000
SCALARS rho double 1
LOOKUP_TABLE default
0.43093 0.430932 0.430929 0.43092 0.430902 0.430875 0.430838 0.430793 0.430741 0.430683 0.430621 0.43056 0.430501 0.43045 0.430412 0.430394 0.430404 0.430455 0.43056 0.430741 0.43102 0.431433 0.432023 0.43285 0.433991 0.435553 0.437671 0.440535 0.44439 0.449569 0.456512 0.465806 0.478227 0.494796 0.516836 0.546036 0.58447 0.634547 0.698765 0.779186 0.876473 0.98868 1.11028 1.23246 1.34519 1.44043 1.51445 1.568 1.60462 1.62867 1.64408 1.65383 1.66 1.66395 1.66654 1.6683 1.66956 1.67052 1.6713 1.67197 1.67256 1.67312 1.67366 1.67417 1.67467 1.67517 1.67566 1.67614 1.67661 1.67708 1.67753 1.67799 1.67843 1.67886 1.67929 1.6797 1.6801 1.6805 1.68088 1.68124 1.6816 1.68194 1.68226 1.68257 1.68286 1.68314 1.6834 1.68364 1.68387 1.68407 1.68426 1.68443 1.68458 1.68471 1.68482 1.68491 1.68498 1.68503 1.68506 1.68507 1.68506 1.68503 1.68497 1.6849 1.68481 1.68469 1.68456 1.68441 1.68424 1.68405 1.68384 1.68361 1.68337 1.68311 1.68283 1.68253 1.68222 1.6819 1.68156 1.68121 1.68084 1.68046 1.68006 1.67966 1.67925 1.67883 1.67839 1.67795 1.6775 1.67704 1.67658 1.67611 1.67563 1.67515 1.67465 1.67415 1.67364 1.67311 1.67255 1.67196 1.67129 1.67052 1.66956 1.6683 1.66654 1.66395 1.65999 1.6538 1.64402 1.62857 1.60445 1.56773 1.51405 1.43988 1.34449 1.23166 1.10943 0.987855 0.875726 0.778543 0.698232 0.634113 0.58412 0.545751 0.516599 0.494594 0.478049 0.465643 0.456356 0.449415 0.444233 0.440373 0.437502 0.435374 0.433803 0.432651 0.431813 0.431213 0.430789 0.4305 0.430311 0.430197 0.430139 0.430123 0.430137 0.430172 0.430222 0.43028 0.430343 0.430408 0.43047 0.430528 0.43058 0.430624 0.430659 0.430686 0.430702 0.430711 0.430712 0.43071 0.430939 0.430938 0.430934 0.430924 0.430904 0.430876 0.430839 0.430794 0.430742 0.430684 0.430623 0.430562 0.430504 0.430454 0.430416 0.430399 0.430409 0.430461 0.430566 0.430747 0.431025 0.431438 0.432026 0.43285 0.433986 0.435541 0.43765 0.440501 0.444336 0.44949 0.456396 0.465641 0.477993 0.494469 0.516384 0.545419 0.583634 0.633433 0.697313 0.777351 0.874249 0.986136 1.10757 1.22981 1.34282 1.4385 1.513 1.56699 1.60394 1.62824 1.64381 1.65367 1.6599 1.66389 1.6665 1.66828 1.66955 1.67051 1.67129 1.67196 1.67256 1.67312 1.67365 1.67417 1.67467 1.67516 1.67565 1.67613 1.6766 1.67707 1.67753 1.67798 1.67842 1.67886 1.67928 1.67969 1.68009 1.68049 1.68086 1.68123 1.68158 1.68193 1.68225 1.68256 1.68285 1.68313 1.68338 1.68363 1.68385 1.68406 1.68424 1.68442 1.68456 1.6847 1.6848 1.6849 1.68496 1.68502 1.68504 1.68506 1.68504 1.68501 1.68495 1.68489 1.68479 1.68468 1.68454 1.6844 1.68422 1.68404 1.68382 1.6836 1.68335 1.6831 1.68281 1.68252 1.68221 1.68189 1.68154 1.6812 1.68082 1.68045 1.68005 1.67966 1.67924 1.67882 1.67838 1.67794 1.67749 1.67704 1.67657 1.6761 1.67562 1.67514 1.67465 1.67415 1.67363 1.67311 1.67255 1.67195 1.67128 1.67051 1.66955 1.66828 1.6665 1.66389 1.65989 1.65364 1.64376 1.62814 1.60377 1.56672 1.5126 1.43794 1.34212 1.22901 1.10673 0.985316 0.873506 0.776712 0.696783 0.633002 0.583285 0.545134 0.516148 0.494268 0.477815 0.465477 0.456239 0.449335 0.444179 0.440338 0.43748 0.435362 0.433798 0.432651 0.431816 0.431217 0.430795 0.430506 0.430317 0.430204 0.430145 0.430129 0.430142 0.430177 0.430225 0.430284 0.430346 0.43041 0.430471 0.430529 0.430581 0.430626 0.430661 0.430688 0.430706 0.430716 0.430719 0.430719 0.430953 0.430951 0.430944 0.430931 0.43091 0.430881 0.430843 0.430797 0.430744 0.430687 0.430627 0.430566 0.430509 0.43046 0.430423 0.430406 0.430417 0.43047 0.430575 0.430755 0.431032 0.431441 0.432025 0.432843 0.433969 0.43551 0.437599 0.440422 0.44422 0.449321 0.456155 0.465301 0.477518 0.493813 0.515483 0.544192 0.581982 0.631241 0.694463 0.773753 0.869892 0.981145 1.10224 1.22457 1.33812 1.43463 1.51008 1.56492 1.60256 1.62735 1.64325 1.65332 1.65969 1.66376 1.66642 1.66823 1.66951 1.67049 1.67127 1.67194 1.67254 1.6731 1.67363 1.67415 1.67465 1.67515 1.67563 1.67611 1.67658 1.67705 1.67751 1.67796 1.6784 1.67884 1.67926 1.67967 1.68007 1.68047 1.68084 1.68121 1.68156 1.6819 1.68222 1.68253 1.68282 1.6831 1.68336 1.6836 1.68382 1.68403 1.68422 1.68439 1.68453 1.68467 1.68477 1.68487 1.68493 1.68499 1.68501 1.68503 1.68501 1.68498 1.68493 1.68486 1.68476 1.68465 1.68452 1.68437 1.68419 1.68401 1.6838 1.68357 1.68333 1.68307 1.68279 1.6825 1.68219 1.68187 1.68152 1.68117 1.6808 1.68043 1.68003 1.67964 1.67922 1.6788 1.67836 1.67793 1.67747 1.67702 1.67655 1.67609 1.67561 1.67513 1.67463 1.67413 1.67362 1.67309 1.67253 1.67194 1.67126 1.67048 1.66951 1.66823 1.66642 1.66376 1.65968 1.65329 1.64319 1.62725 1.60238 1.56465 1.50967 1.43408 1.33742 1.22377 1.1014 0.980333 0.869159 0.773123 0.69394 0.630815 0.581637 0.54391 0.515248 0.493612 0.47734 0.465137 0.455997 0.449165 0.444062 0.440259 0.437429 0.435331 0.43378 0.432643 0.431815 0.431221 0.430801 0.430515 0.430326 0.430213 0.430155 0.430138 0.43015 0.430184 0.430232 0.430289 0.430351 0.430414 0.430475 0.430533 0.430585 0.43063 0.430666 0.430695 0.430715 0.430727 0.430733 0.430734 0.43097 0.430967 0.430958 0.430943 0.430919 0.430888 0.430849 0.430803 0.43075 0.430693 0.430632 0.430573 0.430516 0.430467 0.430431 0.430415 0.430427 0.430479 0.430583 0.430761 0.431035 0.43144 0.432016 0.432823 0.433935 0.435454 0.437513 0.440295 0.444035 0.449058 0.455785 0.464786 0.476806 0.492834 0.514147 0.542382 0.579553 0.628024 0.690286 0.768482 0.863501 0.973805 1.09437 1.21679 1.33108 1.42881 1.50563 1.56175 1.60042 1.62596 1.64237 1.65277 1.65935 1.66355 1.66629 1.66814 1.66945 1.67044 1.67124 1.67191 1.67252 1.67308 1.67361 1.67413 1.67463 1.67512 1.67561 1.67609 1.67656 1.67703 1.67748 1.67793 1.67837 1.67881 1.67923 1.67964 1.68004 1.68043 1.68081 1.68118 1.68153 1.68187 1.68219 1.6825 1.68278 1.68306 1.68332 1.68356 1.68378 1.68399 1.68418 1.68435 1.68449 1.68463 1.68473 1.68483 1.68489 1.68494 1.68497 1.68498 1.68497 1.68494 1.68488 1.68481 1.68472 1.68461 1.68447 1.68433 1.68415 1.68397 1.68376 1.68354 1.68329 1.68303 1.68275 1.68246 1.68215 1.68183 1.68149 1.68114 1.68077 1.6804 1.68 1.67961 1.67919 1.67877 1.67834 1.6779 1.67745 1.67699 1.67653 1.67606 1.67558 1.6751 1.67461 1.67411 1.67359 1.67307 1.67251 1.67191 1.67123 1.67044 1.66945 1.66814 1.66629 1.66354 1.65933 1.65274 1.64231 1.62585 1.60024 1.56147 1.50522 1.42825 1.33038 1.216 1.09354 0.973005 0.862781 0.767864 0.689774 0.627606 0.579214 0.542104 0.513915 0.492635 0.476629 0.464622 0.455627 0.448902 0.443877 0.440131 0.437342 0.435274 0.433745 0.432624 0.431806 0.43122 0.430805 0.430522 0.430335 0.430224 0.430165 0.430148 0.43016 0.430193 0.43024 0.430297 0.430358 0.430421 0.430481 0.430539 0.430591 0.430637 0.430675 0.430705 0.430727 0.430742 0.43075 0.430754 0.430991 0.430986 0.430975 0.430958 0.430932 0.430899 0.430859 0.430811 0.430758 0.4307 0.43064 0.430581 0.430524 0.430476 0.43044 0.430425 0.430436 0.430487 0.43059 0.430765 0.431034 0.431432 0.431997 0.43279 0.43388 0.435371 0.43739 0.440116 0.443782 0.448703 0.45529 0.464103 0.475867 0.491551 0.512402 0.540025 0.576397 0.623851 0.68487 0.76164 0.855188 0.964221 1.08404 1.20651 1.32171 1.42099 1.49962 1.55743 1.59747 1.62402 1.64113 1.65199 1.65886 1.66324 1.66609 1.66801 1.66936 1.67038 1.67118 1.67187 1.67248 1.67304 1.67357 1.67409 1.67459 1.67509 1.67557 1.67605 1.67652 1.67699 1.67744 1.67789 1.67833 1.67877 1.67918 1.6796 1.68 1.68039 1.68076 1.68113 1.68148 1.68182 1.68214 1.68245 1.68273 1.68301 1.68327 1.68351 1.68373 1.68394 1.68412 1.68429 1.68444 1.68457 1.68468 1.68477 1.68484 1.68489 1.68491 1.68493 1.68491 1.68488 1.68483 1.68476 1.68466 1.68456 1.68442 1.68427 1.6841 1.68392 1.68371 1.68348 1.68324 1.68298 1.6827 1.68241 1.6821 1.68178 1.68144 1.6811 1.68073 1.68035 1.67996 1.67956 1.67915 1.67873 1.6783 1.67786 1.67741 1.67696 1.67649 1.67602 1.67555 1.67507 1.67457 1.67407 1.67356 1.67303 1.67247 1.67186 1.67118 1.67038 1.66936 1.66801 1.66609 1.66324 1.65884 1.65196 1.64107 1.62391 1.59729 1.55715 1.4992 1.42043 1.32101 1.20572 1.08322 0.963438 0.854485 0.761039 0.684371 0.623444 0.576066 0.539753 0.512174 0.491354 0.475691 0.463939 0.455133 0.448546 0.443623 0.439952 0.437218 0.43519 0.43369 0.43259 0.431787 0.431211 0.430804 0.430526 0.430343 0.430233 0.430175 0.430159 0.430171 0.430204 0.43025 0.430306 0.430367 0.430429 0.43049 0.430548 0.430601 0.430648 0.430688 0.43072 0.430744 0.430761 0.430772 0.430776 0.431015 0.431009 0.430996 0.430976 0.430948 0.430913 0.430871 0.430822 0.430768 0.43071 0.430649 0.43059 0.430533 0.430486 0.430449 0.430433 0.430444 0.430493 0.430593 0.430763 0.431026 0.431414 0.431966 0.43274 0.433804 0.435259 0.437229 0.439888 0.443462 0.448258 0.454678 0.463261 0.474718 0.489986 0.510282 0.537167 0.572576 0.618802 0.678314 0.753347 0.845079 0.95251 1.07134 1.19377 1.30999 1.41111 1.49195 1.55187 1.59365 1.6215 1.6395 1.65096 1.6582 1.66283 1.66582 1.66783 1.66924 1.67029 1.67111 1.67181 1.67242 1.67299 1.67353 1.67404 1.67454 1.67504 1.67552 1.676 1.67647 1.67694 1.67739 1.67784 1.67828 1.67871 1.67913 1.67955 1.67994 1.68033 1.68071 1.68107 1.68142 1.68176 1.68208 1.68239 1.68267 1.68295 1.6832 1.68345 1.68367 1.68387 1.68406 1.68423 1.68437 1.6845 1.68461 1.6847 1.68477 1.68482 1.68485 1.68486 1.68484 1.68482 1.68476 1.68469 1.6846 1.68449 1.68435 1.68421 1.68403 1.68385 1.68364 1.68342 1.68318 1.68292 1.68264 1.68235 1.68204 1.68173 1.68139 1.68104 1.68067 1.6803 1.67991 1.67951 1.6791 1.67868 1.67825 1.67781 1.67736 1.67691 1.67644 1.67598 1.6755 1.67502 1.67453 1.67403 1.67351 1.67298 1.67242 1.67181 1.67111 1.67029 1.66924 1.66783 1.66582 1.66282 1.65819 1.65092 1.63944 1.62138 1.59346 1.55158 1.49153 1.41055 1.30929 1.19299 1.07053 0.951747 0.844397 0.752764 0.677831 0.618407 0.572254 0.536902 0.510058 0.489792 0.474543 0.463098 0.45452 0.448102 0.443303 0.439723 0.437056 0.435078 0.433614 0.43254 0.431756 0.431194 0.430797 0.430525 0.430347 0.43024 0.430184 0.430169 0.430181 0.430214 0.430261 0.430317 0.430377 0.43044 0.430501 0.43056 0.430613 0.430662 0.430703 0.430737 0.430764 0.430783 0.430796 0.430802 0.431041 0.431033 0.431019 0.430997 0.430967 0.43093 0.430885 0.430835 0.43078 0.430721 0.43066 0.4306 0.430543 0.430495 0.430458 0.430441 0.430449 0.430496 0.430592 0.430757 0.431011 0.431387 0.431923 0.432674 0.433707 0.435119 0.437032 0.439613 0.44308 0.447732 0.453956 0.462276 0.473377 0.488167 0.507823 0.53386 0.568159 0.612966 0.67073 0.743732 0.833317 0.938806 1.05635 1.17859 1.29588 1.3991 1.48253 1.54498 1.58888 1.61832 1.63744 1.64964 1.65737 1.66229 1.66548 1.6676 1.66908 1.67017 1.67102 1.67174 1.67236 1.67293 1.67347 1.67399 1.67449 1.67498 1.67546 1.67594 1.67641 1.67688 1.67733 1.67778 1.67822 1.67865 1.67907 1.67948 1.67987 1.68027 1.68064 1.681 1.68135 1.68169 1.682 1.68231 1.6826 1.68287 1.68313 1.68337 1.68359 1.6838 1.68398 1.68415 1.68429 1.68442 1.68453 1.68462 1.68469 1.68474 1.68476 1.68478 1.68476 1.68473 1.68468 1.68461 1.68452 1.68441 1.68427 1.68413 1.68396 1.68377 1.68356 1.68334 1.6831 1.68285 1.68257 1.68228 1.68197 1.68165 1.68131 1.68097 1.6806 1.68023 1.67984 1.67944 1.67903 1.67862 1.67818 1.67775 1.6773 1.67685 1.67638 1.67592 1.67544 1.67496 1.67447 1.67397 1.67345 1.67292 1.67235 1.67173 1.67102 1.67017 1.66908 1.6676 1.66547 1.66228 1.65735 1.6496 1.63737 1.6182 1.58869 1.54468 1.4821 1.39853 1.29519 1.17782 1.05557 0.938067 0.832659 0.743172 0.670266 0.612586 0.567848 0.533603 0.507605 0.487977 0.473205 0.462115 0.453799 0.447575 0.442921 0.439447 0.436859 0.434938 0.433517 0.432474 0.431713 0.431168 0.430782 0.430519 0.430347 0.430244 0.430191 0.430178 0.430191 0.430225 0.430272 0.430328 0.430389 0.430452 0.430514 0.430573 0.430628 0.430678 0.430721 0.430757 0.430786 0.430808 0.430822 0.430829 0.431068 0.43106 0.431043 0.431019 0.430987 0.430948 0.430901 0.43085 0.430793 0.430733 0.430671 0.43061 0.430553 0.430504 0.430466 0.430447 0.430453 0.430496 0.430587 0.430744 0.430988 0.431351 0.431868 0.432592 0.43359 0.434954 0.436801 0.439294 0.442642 0.447132 0.453138 0.461164 0.471868 0.486125 0.505068 0.530159 0.56322 0.60644 0.66224 0.73294 0.820056 0.923258 1.0392 1.16104 1.27937 1.38487 1.47123 1.53663 1.58304 1.61441 1.63488 1.64799 1.65631 1.66162 1.66504 1.66731 1.66888 1.67002 1.67091 1.67164 1.67227 1.67285 1.67339 1.67391 1.67442 1.67491 1.67539 1.67587 1.67634 1.6768 1.67725 1.6777 1.67814 1.67857 1.67899 1.6794 1.6798 1.68019 1.68056 1.68092 1.68127 1.6816 1.68192 1.68223 1.68251 1.68279 1.68304 1.68328 1.6835 1.6837 1.68388 1.68405 1.6842 1.68433 1.68443 1.68453 1.68459 1.68464 1.68467 1.68468 1.68467 1.68464 1.68458 1.68452 1.68442 1.68432 1.68418 1.68404 1.68386 1.68368 1.68347 1.68326 1.68301 1.68276 1.68248 1.6822 1.68189 1.68157 1.68123 1.68089 1.68052 1.68015 1.67976 1.67937 1.67896 1.67854 1.67811 1.67767 1.67723 1.67678 1.67631 1.67585 1.67537 1.67489 1.6744 1.6739 1.67338 1.67284 1.67227 1.67164 1.6709 1.67002 1.66888 1.66731 1.66503 1.66161 1.65629 1.64795 1.63481 1.61428 1.58284 1.53632 1.47079 1.38429 1.27868 1.16028 1.03844 0.922544 0.819425 0.732405 0.661796 0.606076 0.562921 0.529911 0.504856 0.485939 0.471698 0.461004 0.452982 0.446976 0.442482 0.439128 0.436628 0.434772 0.433399 0.432392 0.431657 0.431131 0.43076 0.430507 0.430342 0.430244 0.430195 0.430185 0.4302 0.430235 0.430283 0.43034 0.430401 0.430465 0.430527 0.430588 0.430644 0.430696 0.430741 0.430779 0.43081 0.430834 0.43085 0.430858 0.431096 0.431087 0.431069 0.431042 0.431008 0.430967 0.430919 0.430866 0.430807 0.430746 0.430683 0.430621 0.430562 0.430511 0.430472 0.430451 0.430453 0.430492 0.430577 0.430726 0.430958 0.431305 0.4318 0.432496 0.433454 0.434765 0.43654 0.438936 0.442153 0.446467 0.452236 0.459941 0.470213 0.483891 0.50206 0.526123 0.557836 0.599324 0.65297 0.721124 0.805467 0.906029 1.02002 1.14117 1.26042 1.3683 1.4579 1.52666 1.57601 1.60965 1.63176 1.64598 1.65502 1.66078 1.66449 1.66695 1.66863 1.66984 1.67077 1.67152 1.67217 1.67276 1.67331 1.67383 1.67433 1.67483 1.67531 1.67579 1.67625 1.67672 1.67717 1.67762 1.67805 1.67848 1.6789 1.67931 1.6797 1.68009 1.68046 1.68083 1.68117 1.68151 1.68182 1.68213 1.68241 1.68269 1.68294 1.68318 1.68339 1.6836 1.68378 1.68395 1.68409 1.68422 1.68433 1.68442 1.68448 1.68454 1.68456 1.68457 1.68456 1.68453 1.68448 1.68441 1.68431 1.68421 1.68408 1.68393 1.68376 1.68358 1.68337 1.68315 1.68291 1.68266 1.68238 1.6821 1.68179 1.68147 1.68114 1.68079 1.68043 1.68006 1.67967 1.67928 1.67887 1.67845 1.67802 1.67759 1.67714 1.67669 1.67623 1.67577 1.67529 1.67481 1.67432 1.67382 1.67329 1.67275 1.67217 1.67152 1.67076 1.66984 1.66863 1.66695 1.66449 1.66077 1.655 1.64593 1.63168 1.60952 1.5758 1.52635 1.45745 1.36772 1.25974 1.14043 1.01928 0.905346 0.804865 0.720615 0.652548 0.598979 0.557551 0.525885 0.501855 0.48371 0.470047 0.459783 0.452081 0.446311 0.441994 0.43877 0.436366 0.434583 0.433263 0.432295 0.43159 0.431085 0.43073 0.430489 0.430332 0.430241 0.430197 0.430189 0.430207 0.430244 0.430293 0.430351 0.430413 0.430478 0.430542 0.430604 0.430662 0.430715 0.430762 0.430802 0.430836 0.430861 0.430879 0.430888 0.431125 0.431114 0.431095 0.431067 0.43103 0.430987 0.430937 0.430882 0.430822 0.430759 0.430694 0.430631 0.430571 0.430518 0.430476 0.430452 0.430451 0.430485 0.430562 0.430702 0.430921 0.431251 0.431722 0.432386 0.433302 0.434555 0.436253 0.438545 0.441622 0.445747 0.451262 0.458625 0.468438 0.4815 0.498843 0.521812 0.552087 0.591723 0.643051 0.708442 0.789729 0.887304 0.998952 1.11907 1.23903 1.34931 1.44239 1.51491 1.56763 1.60394 1.62798 1.64352 1.65343 1.65976 1.66382 1.6665 1.66832 1.66962 1.6706 1.67139 1.67205 1.67265 1.6732 1.67373 1.67424 1.67473 1.67521 1.67569 1.67616 1.67662 1.67707 1.67752 1.67795 1.67838 1.6788 1.67921 1.6796 1.67999 1.68036 1.68072 1.68106 1.6814 1.68171 1.68201 1.6823 1.68257 1.68282 1.68306 1.68328 1.68348 1.68366 1.68383 1.68397 1.6841 1.68421 1.6843 1.68436 1.68442 1.68444 1.68445 1.68444 1.68441 1.68436 1.68429 1.6842 1.68409 1.68396 1.68381 1.68364 1.68346 1.68325 1.68304 1.6828 1.68254 1.68227 1.68199 1.68168 1.68136 1.68103 1.68069 1.68032 1.67995 1.67957 1.67917 1.67877 1.67835 1.67792 1.67749 1.67704 1.6766 1.67613 1.67567 1.67519 1.67472 1.67422 1.67372 1.67319 1.67265 1.67205 1.67138 1.67059 1.66962 1.66832 1.6665 1.66382 1.65975 1.65341 1.64347 1.6279 1.6038 1.56741 1.51458 1.44194 1.34873 1.23836 1.11835 0.998244 0.886653 0.78916 0.707961 0.642653 0.591396 0.551817 0.521584 0.498647 0.481324 0.468276 0.45847 0.451109 0.445592 0.441463 0.438379 0.436079 0.434373 0.43311 0.432185 0.431512 0.431031 0.430693 0.430465 0.430318 0.430234 0.430195 0.430192 0.430212 0.430252 0.430303 0.430362 0.430426 0.430492 0.430557 0.430621 0.43068 0.430735 0.430784 0.430826 0.430861 0.430889 0.430908 0.430918 0.431153 0.431142 0.431121 0.431091 0.431053 0.431008 0.430956 0.430899 0.430837 0.430772 0.430706 0.430641 0.430579 0.430524 0.430479 0.430452 0.430446 0.430474 0.430543 0.430672 0.430878 0.431188 0.431635 0.432265 0.433135 0.434327 0.435943 0.438125 0.441055 0.444983 0.450231 0.457236 0.466567 0.478983 0.495463 0.517285 0.546052 0.583739 0.632617 0.695058 0.773033 0.867281 0.976179 1.09484 1.21521 1.32779 1.42453 1.50117 1.5577 1.5971 1.62342 1.64054 1.6515 1.65851 1.663 1.66595 1.66794 1.66935 1.67039 1.67122 1.67191 1.67253 1.67309 1.67362 1.67413 1.67463 1.67511 1.67559 1.67605 1.67651 1.67696 1.67741 1.67784 1.67827 1.67868 1.67909 1.67948 1.67987 1.68024 1.6806 1.68094 1.68127 1.68159 1.68189 1.68217 1.68244 1.68269 1.68293 1.68315 1.68335 1.68353 1.6837 1.68384 1.68397 1.68407 1.68416 1.68423 1.68428 1.68431 1.68432 1.6843 1.68428 1.68422 1.68416 1.68406 1.68396 1.68382 1.68368 1.68351 1.68333 1.68313 1.68291 1.68267 1.68242 1.68214 1.68186 1.68156 1.68124 1.68091 1.68057 1.68021 1.67984 1.67945 1.67906 1.67865 1.67824 1.67781 1.67738 1.67693 1.67649 1.67603 1.67556 1.67509 1.67461 1.67411 1.67361 1.67308 1.67252 1.67191 1.67122 1.67039 1.66935 1.66794 1.66595 1.663 1.6585 1.65148 1.64049 1.62333 1.59695 1.55747 1.50083 1.42407 1.32721 1.21455 1.09415 0.975502 0.866664 0.772497 0.694607 0.632244 0.583431 0.545796 0.517068 0.495275 0.478813 0.466409 0.457083 0.450079 0.444829 0.440897 0.43796 0.43577 0.434145 0.432943 0.432063 0.431424 0.430969 0.43065 0.430436 0.4303 0.430224 0.430191 0.430192 0.430216 0.430258 0.430311 0.430373 0.430438 0.430506 0.430572 0.430637 0.430698 0.430755 0.430806 0.43085 0.430887 0.430917 0.430937 0.430948 0.43118 0.431169 0.431146 0.431115 0.431075 0.431028 0.430974 0.430915 0.430851 0.430785 0.430717 0.43065 0.430586 0.430528 0.430481 0.430449 0.430439 0.430459 0.430521 0.430638 0.430829 0.431119 0.431539 0.432133 0.432956 0.434084 0.435616 0.437684 0.440461 0.444183 0.449155 0.45579 0.464624 0.476373 0.491962 0.5126 0.539808 0.575474 0.621798 0.681137 0.755573 0.846172 0.951899 1.06864 1.189 1.30368 1.40414 1.48522 1.54602 1.58896 1.61795 1.63694 1.64917 1.65699 1.66201 1.66529 1.66749 1.66902 1.67015 1.67103 1.67175 1.67239 1.67296 1.6735 1.67401 1.67451 1.67499 1.67547 1.67593 1.67639 1.67684 1.67728 1.67772 1.67814 1.67855 1.67896 1.67935 1.67974 1.6801 1.68046 1.6808 1.68114 1.68145 1.68175 1.68203 1.68231 1.68255 1.68279 1.68301 1.68321 1.68339 1.68355 1.68369 1.68382 1.68393 1.68402 1.68408 1.68413 1.68416 1.68417 1.68416 1.68413 1.68408 1.68401 1.68392 1.68381 1.68368 1.68354 1.68337 1.68319 1.68298 1.68277 1.68253 1.68228 1.68201 1.68173 1.68142 1.68111 1.68078 1.68044 1.68007 1.67971 1.67932 1.67893 1.67853 1.67812 1.67769 1.67726 1.67681 1.67637 1.67591 1.67545 1.67497 1.67449 1.67399 1.67348 1.67295 1.67238 1.67175 1.67103 1.67015 1.66902 1.66749 1.66529 1.66201 1.65698 1.64914 1.63689 1.61786 1.5888 1.54578 1.48487 1.40367 1.3031 1.18835 1.06797 0.951256 0.845591 0.755072 0.680716 0.62145 0.575187 0.539568 0.512395 0.491782 0.476209 0.46447 0.45564 0.449006 0.44403 0.440303 0.437518 0.435442 0.433902 0.432764 0.431932 0.431328 0.430899 0.430601 0.430402 0.430278 0.43021 0.430184 0.43019 0.430218 0.430263 0.430319 0.430382 0.43045 0.430519 0.430587 0.430654 0.430717 0.430775 0.430828 0.430874 0.430913 0.430944 0.430966 0.430977 0.431207 0.431194 0.431171 0.431138 0.431096 0.431048 0.430992 0.430931 0.430866 0.430797 0.430727 0.430658 0.430591 0.430531 0.43048 0.430444 0.430428 0.430442 0.430494 0.4306 0.430774 0.431044 0.431436 0.431993 0.432767 0.43383 0.435274 0.437225 0.439846 0.443358 0.448049 0.454305 0.462632 0.473701 0.488383 0.507812 0.533429 0.567027 0.610723 0.666841 0.737547 0.8242 0.926336 1.04064 1.16048 1.27692 1.38105 1.46682 1.53233 1.5793 1.6114 1.63261 1.64633 1.65514 1.6608 1.66449 1.66694 1.66864 1.66986 1.6708 1.67156 1.67222 1.67281 1.67335 1.67387 1.67437 1.67485 1.67533 1.6758 1.67626 1.6767 1.67715 1.67758 1.67801 1.67842 1.67882 1.67921 1.6796 1.67996 1.68032 1.68066 1.68099 1.6813 1.6816 1.68188 1.68215 1.6824 1.68264 1.68285 1.68305 1.68323 1.6834 1.68354 1.68366 1.68377 1.68386 1.68392 1.68397 1.684 1.68401 1.684 1.68397 1.68392 1.68385 1.68376 1.68365 1.68352 1.68338 1.68321 1.68303 1.68283 1.68261 1.68238 1.68213 1.68186 1.68158 1.68127 1.68096 1.68063 1.68029 1.67993 1.67957 1.67918 1.67879 1.67839 1.67798 1.67755 1.67712 1.67668 1.67624 1.67578 1.67531 1.67484 1.67436 1.67386 1.67334 1.6728 1.67222 1.67156 1.6708 1.66986 1.66864 1.66694 1.66449 1.6608 1.65513 1.6463 1.63255 1.61129 1.57914 1.53207 1.46646 1.38058 1.27634 1.15985 1.04 0.925729 0.823657 0.737081 0.666451 0.6104 0.566759 0.533204 0.507619 0.488211 0.473544 0.462483 0.454159 0.447901 0.443207 0.439688 0.43706 0.4351 0.433648 0.432575 0.431792 0.431225 0.430824 0.430546 0.430364 0.430251 0.430193 0.430174 0.430186 0.430218 0.430266 0.430325 0.430391 0.43046 0.430532 0.430602 0.43067 0.430735 0.430795 0.430849 0.430897 0.430938 0.43097 0.430993 0.431005 0.431232 0.431219 0.431194 0.43116 0.431117 0.431066 0.431009 0.430947 0.430879 0.430809 0.430737 0.430665 0.430596 0.430533 0.430478 0.430437 0.430416 0.430422 0.430465 0.430558 0.430716 0.430964 0.431327 0.431847 0.432571 0.433567 0.434922 0.436755 0.439217 0.442517 0.446923 0.452798 0.460613 0.470997 0.484763 0.502975 0.526986 0.558491 0.599514 0.652327 0.719152 0.801598 0.899735 1.01105 1.12979 1.24751 1.35513 1.44573 1.51635 1.56787 1.60355 1.62737 1.64289 1.6529 1.65933 1.66351 1.66628 1.66817 1.66952 1.67054 1.67135 1.67203 1.67264 1.6732 1.67372 1.67422 1.67471 1.67519 1.67565 1.67611 1.67656 1.677 1.67743 1.67786 1.67826 1.67867 1.67906 1.67944 1.6798 1.68016 1.6805 1.68083 1.68114 1.68144 1.68172 1.68199 1.68223 1.68247 1.68268 1.68288 1.68306 1.68322 1.68336 1.68349 1.68359 1.68368 1.68375 1.6838 1.68382 1.68384 1.68382 1.6838 1.68374 1.68368 1.68358 1.68348 1.68335 1.68321 1.68304 1.68286 1.68266 1.68245 1.68221 1.68196 1.68169 1.68141 1.68111 1.6808 1.68047 1.68013 1.67978 1.67941 1.67903 1.67864 1.67824 1.67783 1.67741 1.67698 1.67654 1.67609 1.67563 1.67517 1.67469 1.67421 1.67371 1.67319 1.67263 1.67203 1.67134 1.67054 1.66952 1.66817 1.66628 1.66351 1.65933 1.65288 1.64286 1.62731 1.60344 1.56769 1.51608 1.44536 1.35465 1.24694 1.12918 1.01044 0.899165 0.801093 0.718721 0.651968 0.599215 0.558242 0.526776 0.502793 0.4846 0.470845 0.460468 0.452654 0.446777 0.442367 0.439061 0.436591 0.434749 0.433385 0.432379 0.431646 0.431117 0.430744 0.430488 0.430322 0.430222 0.430174 0.430162 0.430179 0.430216 0.430268 0.43033 0.430399 0.43047 0.430544 0.430616 0.430686 0.430752 0.430814 0.43087 0.43092 0.430962 0.430995 0.431019 0.431032 0.431255 0.431242 0.431216 0.431181 0.431136 0.431084 0.431025 0.430961 0.430892 0.43082 0.430745 0.430671 0.430599 0.430533 0.430474 0.430429 0.430401 0.4304 0.430432 0.430513 0.430654 0.43088 0.431215 0.431696 0.43237 0.433299 0.434565 0.436278 0.438581 0.441668 0.445789 0.451283 0.458587 0.468286 0.481139 0.498137 0.520542 0.549951 0.588285 0.637747 0.70058 0.778598 0.872358 0.980137 1.0971 1.21549 1.32625 1.42172 1.49779 1.55437 1.59417 1.62105 1.63872 1.65016 1.65754 1.66232 1.66547 1.66761 1.66911 1.67023 1.6711 1.67182 1.67245 1.67302 1.67355 1.67406 1.67455 1.67503 1.67549 1.67595 1.6764 1.67684 1.67727 1.67769 1.6781 1.6785 1.67889 1.67927 1.67963 1.67999 1.68033 1.68065 1.68096 1.68126 1.68154 1.68181 1.68205 1.68229 1.6825 1.6827 1.68288 1.68304 1.68318 1.68331 1.68341 1.6835 1.68356 1.68361 1.68364 1.68365 1.68363 1.68361 1.68356 1.68349 1.6834 1.6833 1.68317 1.68303 1.68286 1.68268 1.68248 1.68227 1.68203 1.68178 1.68152 1.68124 1.68094 1.68063 1.6803 1.67996 1.67961 1.67924 1.67886 1.67848 1.67808 1.67767 1.67725 1.67682 1.67638 1.67593 1.67548 1.67501 1.67454 1.67405 1.67354 1.67301 1.67244 1.67182 1.6711 1.67023 1.66911 1.66761 1.66547 1.66232 1.65753 1.65014 1.63868 1.62098 1.59405 1.55418 1.49751 1.42133 1.32576 1.21493 1.09651 0.979559 0.871827 0.778132 0.700185 0.637417 0.588011 0.549722 0.520347 0.497966 0.480984 0.468141 0.458446 0.451142 0.445646 0.44152 0.438426 0.436114 0.434392 0.433117 0.432178 0.431495 0.431004 0.430661 0.430426 0.430277 0.43019 0.430152 0.430148 0.430171 0.430213 0.430269 0.430334 0.430405 0.430479 0.430555 0.430629 0.430701 0.430769 0.430832 0.43089 0.430941 0.430984 0.431019 0.431044 0.431057 0.431277 0.431263 0.431237 0.4312 0.431154 0.431101 0.43104 0.430974 0.430903 0.430829 0.430753 0.430676 0.430601 0.430532 0.430469 0.430419 0.430385 0.430375 0.430398 0.430465 0.43059 0.430793 0.431099 0.431543 0.432165 0.433028 0.434204 0.435799 0.437944 0.44082 0.444659 0.449774 0.456572 0.465595 0.477544 0.49334 0.514158 0.541487 0.577143 0.623241 0.682015 0.755435 0.844479 0.948174 1.06265 1.18098 1.29436 1.39455 1.47633 1.53847 1.58296 1.61342 1.63364 1.64682 1.65534 1.66087 1.66449 1.66693 1.66862 1.66986 1.67081 1.67158 1.67224 1.67283 1.67337 1.67389 1.67438 1.67486 1.67532 1.67578 1.67623 1.67667 1.6771 1.67752 1.67792 1.67833 1.67871 1.67909 1.67945 1.67981 1.68014 1.68047 1.68077 1.68107 1.68135 1.68162 1.68186 1.68209 1.6823 1.6825 1.68268 1.68284 1.68298 1.68311 1.68321 1.6833 1.68336 1.68341 1.68344 1.68345 1.68343 1.68341 1.68336 1.68329 1.6832 1.6831 1.68297 1.68283 1.68266 1.68249 1.68229 1.68207 1.68184 1.68159 1.68133 1.68105 1.68075 1.68044 1.68012 1.67978 1.67943 1.67907 1.67869 1.6783 1.6779 1.67749 1.67707 1.67665 1.67621 1.67577 1.67531 1.67485 1.67437 1.67388 1.67336 1.67282 1.67223 1.67158 1.67081 1.66986 1.66863 1.66693 1.66449 1.66086 1.65533 1.64679 1.63359 1.61334 1.58282 1.53826 1.47603 1.39416 1.29387 1.18044 1.06209 0.947632 0.843987 0.755007 0.681654 0.62294 0.576892 0.541276 0.513977 0.49318 0.477397 0.465455 0.456435 0.449636 0.444517 0.440673 0.43779 0.435636 0.434032 0.432846 0.431973 0.431341 0.430889 0.430574 0.430362 0.43023 0.430156 0.430128 0.430132 0.430161 0.430208 0.430268 0.430336 0.430411 0.430487 0.430565 0.43064 0.430714 0.430784 0.430849 0.430908 0.430961 0.431005 0.431041 0.431066 0.43108 0.431297 0.431282 0.431255 0.431218 0.431171 0.431116 0.431054 0.430986 0.430913 0.430837 0.430759 0.43068 0.430602 0.430529 0.430462 0.430407 0.430367 0.430349 0.430362 0.430416 0.430524 0.430705 0.430982 0.431387 0.43196 0.432756 0.433845 0.435323 0.437312 0.439979 0.44354 0.448283 0.454585 0.462944 0.474007 0.488626 0.507885 0.53317 0.566182 0.608938 0.663631 0.732333 0.816378 0.915478 1.02673 1.14417 1.25947 1.36406 1.45166 1.5198 1.56958 1.60419 1.62744 1.64271 1.65263 1.65907 1.66329 1.66611 1.66804 1.66943 1.67047 1.6713 1.672 1.67261 1.67317 1.6737 1.67419 1.67468 1.67514 1.6756 1.67604 1.67649 1.67691 1.67733 1.67774 1.67814 1.67852 1.6789 1.67926 1.67961 1.67994 1.68027 1.68057 1.68087 1.68115 1.68141 1.68165 1.68189 1.6821 1.68229 1.68247 1.68263 1.68277 1.6829 1.683 1.68308 1.68315 1.6832 1.68322 1.68323 1.68322 1.68319 1.68314 1.68308 1.68299 1.68288 1.68276 1.68262 1.68245 1.68228 1.68208 1.68187 1.68163 1.68139 1.68112 1.68085 1.68055 1.68024 1.67992 1.67958 1.67923 1.67887 1.6785 1.67811 1.67771 1.67731 1.67689 1.67647 1.67603 1.67558 1.67513 1.67466 1.67418 1.67369 1.67316 1.67261 1.672 1.6713 1.67047 1.66943 1.66804 1.66611 1.66329 1.65907 1.65262 1.64268 1.62739 1.6041 1.56943 1.51958 1.45135 1.36365 1.25899 1.14364 1.0262 0.914973 0.815926 0.731944 0.663303 0.608665 0.565954 0.532977 0.507717 0.488476 0.473868 0.46281 0.454452 0.448149 0.443401 0.439834 0.437158 0.43516 0.433673 0.432574 0.431768 0.431186 0.430772 0.430486 0.430296 0.430181 0.43012 0.430102 0.430114 0.43015 0.430202 0.430266 0.430338 0.430415 0.430494 0.430573 0.430651 0.430727 0.430798 0.430865 0.430925 0.430979 0.431024 0.431061 0.431087 0.431101 0.431314 0.4313 0.431272 0.431234 0.431186 0.43113 0.431066 0.430997 0.430923 0.430845 0.430764