# vtk DataFile Version 3.0
Immiscible displacement
ASCII
DATASET RECTILINEAR_GRID
DIMENSIONS 200 200 1
X_COORDINATES 200 double
1 2 3 4 5 6 7 8 9 10 11 12 13 14 15 16 17 18 19 20 21 22 23 24 25 26 27 28 29 30 31 32 33 34 35 36 37 38 39 40 41 42 43 44 45 46 47 48 49 50 51 52 53 54 55 56 57 58 59 60 61 62 63 64 65 66 67 68 69 70 71 72 73 74 75 76 77 78 79 80 81 82 83 84 85 86 87 88 89 90 91 92 93 94 95 96 97 98 99 100 101 102 103 104 105 106 107 108 109 110 111 112 113 114 115 116 117 118 119 120 121 122 123 124 125 126 127 128 129 130 131 132 133 134 135 136 137 138 139 140 141 142 143 144 145 146 147 148 149 150 151 152 153 154 155 156 157 158 159 160 161 162 163 164 165 166 167 168 169 170 171 172 173 174 175 176 177 178 179 180 181 182 183 184 185 186 187 188 189 190 191 192 193 194 195 196 197 198 199 200 
Y_COORDINATES 200 double
1 2 3 4 5 6 7 8 9 10 11 12 13 14 15 16 17 18 19 20 21 22 23 24 25 26 27 28 29 30 31 32 33 34 35 36 37 38 39 40 41 42 43 44 45 46 47 48 49 50 51 52 53 54 55 56 57 58 59 60 61 62 63 64 65 66 67 68 69 70 71 72 73 74 75 76 77 78 79 80 81 82 83 84 85 86 87 88 89 90 91 92 93 94 95 96 97 98 99 100 101 102 103 104 105 106 107 108 109 110 111 112 113 114 115 116 117 118 119 120 121 122 123 124 125 126 127 128 129 130 131 132 133 134 135 136 137 138 139 140 141 142 143 144 145 146 147 148 149 150 151 152 153 154 155 156 157 158 159 160 161 162 163 164 165 166 167 168 169 170 171 172 173 174 175 176 177 178 179 180 181 182 183 184 185 186 187 188 189 190 191 192 193 194 195 196 197 198 199 200 
Z_COORDINATES 1 double
0
POINT_DATA 40000
SCALARS rho double 1
LOOKUP_TABLE default
0.448571 0.448425 0.44822 0.447997 0.447772 0.447551 0.447336 0.447125 0.446915 0.446705 0.446492 0.446275 0.446053 0.445829 0.445603 0.445383 0.445175 0.44499 0.444843 0.444757 0.444757 0.444884 0.445186 0.445733 0.446613 0.44795 0.449898 0.452677 0.456563 0.461937 0.469295 0.4793 0.492814 0.510974 0.535228 0.567403 0.609675 0.664485 0.734163 0.820281 0.922561 1.03775 1.15902 1.277 1.38228 1.46851 1.5338 1.58011 1.61136 1.63176 1.64481 1.6531 1.65839 1.66185 1.66419 1.66587 1.66715 1.66822 1.66918 1.67009 1.67099 1.6719 1.67284 1.67382 1.67482 1.67588 1.67696 1.67808 1.67923 1.6804 1.68159 1.6828 1.68401 1.68522 1.68642 1.68761 1.68877 1.68992 1.69102 1.69209 1.69311 1.6941 1.69502 1.6959 1.69672 1.69749 1.69819 1.69885 1.69944 1.69998 1.70046 1.70089 1.70126 1.70158 1.70185 1.70207 1.70224 1.70236 1.70243 1.70246 1.70243 1.70236 1.70224 1.70207 1.70185 1.70159 1.70126 1.70089 1.70046 1.69998 1.69944 1.69885 1.6982 1.6975 1.69673 1.69591 1.69503 1.69411 1.69313 1.69211 1.69104 1.68994 1.6888 1.68764 1.68645 1.68525 1.68404 1.68283 1.68163 1.68044 1.67926 1.67812 1.67699 1.67591 1.67486 1.67385 1.67287 1.67193 1.67101 1.67011 1.6692 1.66824 1.66716 1.66587 1.66418 1.66183 1.65835 1.65303 1.64469 1.63157 1.61106 1.57964 1.5331 1.46753 1.38098 1.27541 1.15723 1.03586 0.920694 0.818509 0.732521 0.662977 0.608286 0.566112 0.534014 0.509818 0.491702 0.478223 0.468248 0.460918 0.45557 0.451712 0.448965 0.447052 0.445755 0.444918 0.444419 0.444169 0.444098 0.444158 0.444306 0.444517 0.444767 0.445042 0.445326 0.445616 0.445901 0.44618 0.44645 0.44671 0.44696 0.447203 0.447439 0.447672 0.447904 0.448137 0.448369 0.448596 0.448801 0.448947 0.448384 0.448271 0.448096 0.447894 0.447684 0.447474 0.447266 0.447061 0.446856 0.446651 0.446441 0.446228 0.446009 0.445789 0.445566 0.445351 0.445145 0.444965 0.44482 0.444738 0.444739 0.444869 0.44517 0.445719 0.446595 0.447927 0.449865 0.452631 0.456495 0.461842 0.469156 0.479104 0.492537 0.51059 0.534695 0.566676 0.608694 0.66319 0.732493 0.818207 0.920102 1.03502 1.15621 1.27435 1.38 1.46673 1.5325 1.57923 1.6108 1.63142 1.6446 1.65299 1.65834 1.66184 1.6642 1.66589 1.66718 1.66827 1.66922 1.67015 1.67104 1.67196 1.6729 1.67388 1.67488 1.67594 1.67702 1.67814 1.67928 1.68046 1.68164 1.68285 1.68405 1.68526 1.68645 1.68764 1.68879 1.68993 1.69102 1.69209 1.69309 1.69407 1.69499 1.69586 1.69667 1.69744 1.69813 1.69879 1.69937 1.69991 1.70038 1.70081 1.70118 1.7015 1.70176 1.70199 1.70215 1.70228 1.70234 1.70237 1.70234 1.70228 1.70215 1.70199 1.70176 1.70151 1.70118 1.70082 1.70038 1.69992 1.69937 1.69879 1.69814 1.69745 1.69668 1.69588 1.695 1.69409 1.69311 1.6921 1.69104 1.68995 1.68881 1.68766 1.68647 1.68529 1.68408 1.68288 1.68167 1.68049 1.67932 1.67818 1.67705 1.67598 1.67492 1.67391 1.67293 1.67199 1.67107 1.67017 1.66924 1.66828 1.66719 1.66589 1.66419 1.66182 1.6583 1.65292 1.64448 1.63122 1.61049 1.57875 1.53179 1.46572 1.37868 1.27273 1.15439 1.03311 0.918222 0.816427 0.730847 0.661682 0.607308 0.56539 0.533486 0.50944 0.491433 0.478036 0.468118 0.460832 0.455512 0.451677 0.448942 0.447039 0.445746 0.444913 0.444413 0.444164 0.444089 0.444147 0.444291 0.444499 0.444744 0.445015 0.445295 0.445581 0.445861 0.446137 0.446402 0.446659 0.446905 0.447144 0.447375 0.447602 0.447826 0.448049 0.448266 0.448473 0.448649 0.448762 0.4481 0.448018 0.447878 0.447708 0.447523 0.447332 0.447139 0.446946 0.44675 0.446553 0.44635 0.446145 0.445932 0.445719 0.445502 0.445293 0.445093 0.44492 0.44478 0.444703 0.444708 0.44484 0.445141 0.445687 0.446556 0.447877 0.449797 0.452534 0.456356 0.461644 0.468875 0.478709 0.491984 0.509824 0.533644 0.565247 0.606777 0.660662 0.729242 0.814169 0.915319 1.02969 1.15071 1.26913 1.37549 1.46314 1.52987 1.57743 1.60962 1.63068 1.64416 1.65274 1.65821 1.66179 1.66419 1.66591 1.66722 1.66832 1.66928 1.67021 1.67111 1.67204 1.67297 1.67396 1.67496 1.67602 1.6771 1.67822 1.67935 1.68053 1.6817 1.6829 1.68409 1.68529 1.68647 1.68765 1.68879 1.68992 1.691 1.69206 1.69306 1.69403 1.69493 1.6958 1.69659 1.69735 1.69804 1.69869 1.69926 1.6998 1.70026 1.70069 1.70105 1.70137 1.70163 1.70185 1.70201 1.70214 1.7022 1.70223 1.7022 1.70214 1.70201 1.70186 1.70163 1.70138 1.70105 1.7007 1.70027 1.6998 1.69927 1.69869 1.69805 1.69736 1.69661 1.69581 1.69494 1.69404 1.69308 1.69208 1.69102 1.68994 1.68882 1.68768 1.6865 1.68532 1.68412 1.68293 1.68173 1.68056 1.67939 1.67825 1.67713 1.67605 1.675 1.67399 1.673 1.67206 1.67113 1.67023 1.6693 1.66833 1.66723 1.66591 1.66417 1.66176 1.65816 1.65266 1.64403 1.63047 1.60929 1.57692 1.52913 1.4621 1.37412 1.26747 1.14885 1.02775 0.913419 0.812378 0.727593 0.659155 0.605395 0.563967 0.532444 0.508685 0.490892 0.477654 0.467851 0.460648 0.455388 0.451595 0.44889 0.447006 0.445724 0.444898 0.4444 0.444151 0.444074 0.444127 0.444265 0.444468 0.444705 0.44497 0.445242 0.445521 0.445794 0.446063 0.44632 0.44657 0.446808 0.447038 0.447259 0.447475 0.447684 0.447888 0.448081 0.448257 0.448398 0.448482 0.447766 0.447707 0.447601 0.447464 0.447307 0.447141 0.446967 0.446791 0.446608 0.446423 0.446231 0.446035 0.445831 0.445627 0.445419 0.445219 0.445027 0.44486 0.444728 0.444656 0.444665 0.444799 0.445099 0.445639 0.446497 0.447799 0.449689 0.452383 0.456143 0.461343 0.468452 0.478118 0.491165 0.508695 0.5321 0.563157 0.60398 0.656983 0.724514 0.808295 0.908347 1.02189 1.14261 1.26141 1.36875 1.45775 1.52588 1.57466 1.60779 1.62952 1.64345 1.65232 1.65797 1.66166 1.66414 1.6659 1.66724 1.66836 1.66933 1.67027 1.67117 1.6721 1.67304 1.67403 1.67503 1.67609 1.67716 1.67828 1.67941 1.68058 1.68175 1.68294 1.68412 1.68531 1.68648 1.68765 1.68878 1.6899 1.69096 1.69201 1.693 1.69396 1.69485 1.69571 1.69649 1.69724 1.69792 1.69856 1.69913 1.69966 1.70012 1.70054 1.7009 1.70122 1.70147 1.70169 1.70185 1.70198 1.70204 1.70207 1.70204 1.70198 1.70185 1.70169 1.70147 1.70122 1.7009 1.70055 1.70012 1.69967 1.69914 1.69857 1.69793 1.69725 1.6965 1.69572 1.69486 1.69397 1.69302 1.69203 1.69099 1.68992 1.6888 1.68768 1.68651 1.68534 1.68415 1.68297 1.68178 1.68061 1.67944 1.67831 1.67719 1.67612 1.67506 1.67406 1.67307 1.67213 1.6712 1.67029 1.66935 1.66836 1.66724 1.6659 1.66412 1.66163 1.65792 1.65223 1.64331 1.6293 1.60744 1.57412 1.52509 1.45665 1.36732 1.25969 1.14071 1.01992 0.906425 0.806494 0.722862 0.655478 0.602604 0.561886 0.530911 0.507569 0.490087 0.477078 0.467445 0.460365 0.455193 0.451463 0.448802 0.446948 0.445685 0.444871 0.444378 0.44413 0.44405 0.444099 0.444231 0.444426 0.444655 0.444911 0.445174 0.445443 0.445706 0.445965 0.446212 0.446452 0.446678 0.446897 0.447104 0.447304 0.447494 0.447674 0.447839 0.447982 0.448091 0.448151 0.447408 0.447367 0.447289 0.447183 0.447055 0.446915 0.446764 0.446606 0.44644 0.44627 0.44609 0.445906 0.445714 0.44552 0.445322 0.445132 0.444949 0.444791 0.444665 0.4446 0.444612 0.444747 0.445043 0.445574 0.446416 0.447692 0.449542 0.452178 0.455856 0.460942 0.467893 0.477342 0.490094 0.507227 0.530101 0.560457 0.600376 0.652246 0.718428 0.800722 0.899332 1.01177 1.13204 1.25124 1.3598 1.45053 1.52048 1.57086 1.60526 1.62789 1.64244 1.6517 1.65761 1.66146 1.66403 1.66586 1.66723 1.66837 1.66936 1.6703 1.67121 1.67215 1.67309 1.67407 1.67508 1.67613 1.6772 1.67831 1.67944 1.6806 1.68176 1.68295 1.68412 1.6853 1.68646 1.68762 1.68873 1.68984 1.6909 1.69193 1.69291 1.69386 1.69474 1.69559 1.69637 1.69711 1.69778 1.69841 1.69897 1.6995 1.69995 1.70037 1.70073 1.70104 1.70129 1.70151 1.70167 1.70179 1.70185 1.70189 1.70185 1.70179 1.70167 1.70152 1.7013 1.70105 1.70073 1.70038 1.69996 1.69951 1.69898 1.69842 1.69779 1.69712 1.69638 1.6956 1.69475 1.69387 1.69293 1.69195 1.69092 1.68986 1.68876 1.68764 1.68649 1.68533 1.68415 1.68298 1.68179 1.68063 1.67947 1.67835 1.67723 1.67616 1.67511 1.6741 1.67311 1.67217 1.67123 1.67032 1.66937 1.66837 1.66723 1.66585 1.66401 1.66142 1.65755 1.6516 1.64228 1.62765 1.60487 1.57028 1.51963 1.44936 1.3583 1.24946 1.13008 1.00976 0.897389 0.798912 0.716775 0.650746 0.599008 0.559197 0.528924 0.506115 0.489031 0.476319 0.466903 0.459983 0.454927 0.451279 0.448676 0.446863 0.445627 0.444829 0.444345 0.4441 0.44402 0.444065 0.44419 0.444377 0.444597 0.444843 0.445095 0.445353 0.445604 0.445852 0.446087 0.446314 0.446527 0.446731 0.446921 0.447102 0.44727 0.447425 0.447561 0.447674 0.447756 0.447798 0.447045 0.447018 0.446963 0.446883 0.446783 0.446668 0.44654 0.446403 0.446255 0.446101 0.445935 0.445765 0.445585 0.445404 0.445217 0.445037 0.444864 0.444715 0.444596 0.444536 0.44455 0.444684 0.444974 0.445493 0.446313 0.447556 0.449356 0.451921 0.455499 0.460446 0.467206 0.476395 0.488793 0.505451 0.527689 0.557208 0.596043 0.646556 0.711112 0.791599 0.88843 0.999459 1.11907 1.23867 1.34862 1.44141 1.51359 1.56599 1.60197 1.62576 1.64108 1.65087 1.6571 1.66115 1.66385 1.66576 1.66718 1.66835 1.66935 1.67031 1.67122 1.67216 1.6731 1.67408 1.67509 1.67613 1.6772 1.67831 1.67943 1.68058 1.68174 1.68291 1.68408 1.68525 1.6864 1.68755 1.68866 1.68975 1.6908 1.69182 1.69279 1.69373 1.6946 1.69544 1.69622 1.69695 1.69762 1.69824 1.6988 1.69932 1.69977 1.70019 1.70054 1.70086 1.7011 1.70132 1.70148 1.7016 1.70166 1.70169 1.70166 1.7016 1.70148 1.70132 1.70111 1.70086 1.70054 1.7002 1.69978 1.69933 1.69881 1.69825 1.69763 1.69696 1.69623 1.69546 1.69462 1.69375 1.69281 1.69184 1.69082 1.68978 1.68868 1.68757 1.68643 1.68528 1.68411 1.68295 1.68177 1.68062 1.67946 1.67834 1.67723 1.67617 1.67512 1.67411 1.67313 1.67218 1.67124 1.67032 1.66936 1.66835 1.66718 1.66574 1.66382 1.66111 1.65703 1.65075 1.64091 1.62548 1.60155 1.56535 1.51268 1.44016 1.34704 1.23681 1.11706 0.997417 0.886469 0.789783 0.709461 0.645062 0.594685 0.555959 0.526525 0.504352 0.487746 0.475388 0.466234 0.459506 0.45459 0.451044 0.448513 0.44675 0.445548 0.444772 0.444301 0.444062 0.443982 0.444025 0.444144 0.444323 0.444533 0.444768 0.445009 0.445255 0.445494 0.445729 0.44595 0.446163 0.446361 0.446549 0.446721 0.446882 0.447027 0.447157 0.447266 0.447354 0.447412 0.447441 0.446689 0.446673 0.446636 0.44658 0.446503 0.446412 0.446306 0.446189 0.44606 0.445922 0.445772 0.445617 0.44545 0.445281 0.445106 0.444937 0.444774 0.444633 0.444521 0.444466 0.444481 0.444613 0.444894 0.445397 0.44619 0.447392 0.449134 0.451616 0.455077 0.459864 0.466404 0.475293 0.487286 0.503399 0.524911 0.553473 0.591069 0.640021 0.7027 0.781082 0.875805 0.985106 1.10384 1.22373 1.3352 1.43033 1.50514 1.55994 1.59785 1.62306 1.63935 1.64978 1.65642 1.66073 1.66359 1.6656 1.66708 1.66828 1.66931 1.67028 1.6712 1.67214 1.67308 1.67406 1.67506 1.6761 1.67716 1.67827 1.67938 1.68053 1.68167 1.68284 1.68399 1.68516 1.6863 1.68744 1.68854 1.68963 1.69066 1.69168 1.69264 1.69357 1.69444 1.69527 1.69604 1.69677 1.69743 1.69806 1.69861 1.69913 1.69958 1.69999 1.70034 1.70065 1.7009 1.70112 1.70127 1.70139 1.70146 1.70149 1.70146 1.7014 1.70127 1.70112 1.7009 1.70065 1.70034 1.7 1.69958 1.69913 1.69862 1.69806 1.69744 1.69678 1.69605 1.69529 1.69446 1.69359 1.69266 1.6917 1.69069 1.68965 1.68856 1.68746 1.68633 1.68519 1.68402 1.68287 1.6817 1.68056 1.67941 1.6783 1.67719 1.67613 1.67509 1.67409 1.6731 1.67216 1.67122 1.67029 1.66932 1.66828 1.66707 1.66558 1.66356 1.66068 1.65634 1.64965 1.63916 1.62275 1.59739 1.55925 1.50415 1.42901 1.33354 1.22181 1.10177 0.983034 0.873831 0.779265 0.701055 0.638538 0.589722 0.552236 0.52376 0.502315 0.486254 0.474303 0.46545 0.458943 0.454189 0.45076 0.448313 0.44661 0.445449 0.4447 0.444246 0.444015 0.443939 0.443979 0.444094 0.444266 0.444466 0.444691 0.44492 0.445153 0.445379 0.4456 0.445808 0.446006 0.446187 0.446358 0.446512 0.446653 0.446776 0.446882 0.446968 0.447033 0.447074 0.447092 0.446349 0.446341 0.446319 0.446282 0.446226 0.446156 0.44607 0.445973 0.445862 0.445741 0.445607 0.445465 0.445312 0.445156 0.444993 0.444835 0.444681 0.444549 0.444443 0.444391 0.444406 0.444533 0.444803 0.445285 0.446047 0.447203 0.448878 0.451266 0.454597 0.459204 0.465499 0.474056 0.4856 0.501109 0.521817 0.549318 0.58554 0.632757 0.693334 0.769334 0.861631 0.968872 1.08643 1.20648 1.3195 1.41722 1.49501 1.55261 1.59282 1.61972 1.6372 1.64841 1.65556 1.66019 1.66324 1.66537 1.66693 1.66817 1.66923 1.67021 1.67114 1.67208 1.67301 1.67399 1.67499 1.67603 1.67708 1.67818 1.67928 1.68042 1.68156 1.68272 1.68387 1.68502 1.68616 1.68729 1.68838 1.68946 1.69049 1.6915 1.69246 1.69338 1.69424 1.69507 1.69584 1.69656 1.69722 1.69784 1.6984 1.69891 1.69936 1.69978 1.70012 1.70044 1.70068 1.7009 1.70106 1.70118 1.70124 1.70127 1.70124 1.70118 1.70106 1.7009 1.70069 1.70044 1.70013 1.69978 1.69937 1.69892 1.6984 1.69785 1.69723 1.69657 1.69585 1.69509 1.69426 1.6934 1.69247 1.69152 1.69051 1.68948 1.6884 1.68731 1.68618 1.68505 1.6839 1.68275 1.68159 1.68045 1.67931 1.67821 1.67711 1.67605 1.67501 1.67402 1.67304 1.6721 1.67115 1.67022 1.66923 1.66817 1.66692 1.66535 1.66321 1.66013 1.65546 1.64826 1.63698 1.61938 1.5923 1.55185 1.49394 1.4158 1.31775 1.20449 1.08432 0.966775 0.85965 0.767521 0.691699 0.631285 0.584206 0.548095 0.52068 0.500039 0.484582 0.473081 0.464562 0.458301 0.453728 0.450431 0.44808 0.446444 0.44533 0.444613 0.444179 0.443961 0.443889 0.443929 0.44404 0.444205 0.444398 0.444612 0.444829 0.445051 0.445263 0.445471 0.445663 0.445846 0.446012 0.446165 0.446301 0.446423 0.446526 0.446612 0.446678 0.446724 0.44675 0.44676 0.44603 0.446029 0.446019 0.445997 0.445959 0.445907 0.44584 0.44576 0.445666 0.445561 0.445442 0.445315 0.445175 0.445032 0.44488 0.444733 0.444588 0.444463 0.444363 0.444313 0.444327 0.444446 0.444702 0.445162 0.445888 0.446992 0.448593 0.450878 0.454066 0.458477 0.464506 0.472703 0.483761 0.498618 0.518457 0.544812 0.579545 0.624876 0.683156 0.756523 0.846086 0.950926 1.06699 1.18697 1.30149 1.40196 1.48306 1.54388 1.58676 1.61567 1.63456 1.64671 1.65447 1.65949 1.66279 1.66507 1.66672 1.66802 1.6691 1.6701 1.67103 1.67198 1.67291 1.67389 1.67487 1.67591 1.67695 1.67804 1.67914 1.68027 1.6814 1.68255 1.68369 1.68484 1.68596 1.68709 1.68817 1.68925 1.69027 1.69128 1.69223 1.69315 1.69401 1.69484 1.6956 1.69633 1.69698 1.69761 1.69816 1.69868 1.69912 1.69954 1.69989 1.7002 1.70045 1.70067 1.70082 1.70095 1.70101 1.70104 1.70101 1.70095 1.70082 1.70067 1.70045 1.7002 1.69989 1.69954 1.69913 1.69868 1.69817 1.69761 1.69699 1.69634 1.69561 1.69485 1.69403 1.69317 1.69225 1.6913 1.6903 1.68927 1.6882 1.68711 1.68599 1.68487 1.68372 1.68258 1.68143 1.6803 1.67917 1.67807 1.67698 1.67593 1.6749 1.67391 1.67293 1.67199 1.67105 1.67011 1.66911 1.66801 1.6667 1.66504 1.66275 1.65942 1.65437 1.64655 1.63431 1.61529 1.58619 1.54304 1.48191 1.40045 1.29965 1.1849 1.06484 0.948811 0.844105 0.75472 0.681535 0.62342 0.578227 0.543604 0.517334 0.497562 0.482758 0.471743 0.463585 0.457592 0.453215 0.450062 0.447815 0.446254 0.445194 0.444513 0.444103 0.443898 0.443834 0.443876 0.443984 0.444144 0.444328 0.444533 0.444739 0.444949 0.445149 0.445343 0.445521 0.445689 0.445839 0.445977 0.446095 0.446199 0.446284 0.446352 0.446401 0.446432 0.446447 0.44645 0.445736 0.44574 0.44574 0.44573 0.445707 0.445671 0.445619 0.445556 0.445477 0.445387 0.445282 0.445169 0.445042 0.44491 0.44477 0.444632 0.444496 0.444378 0.444282 0.444233 0.444243 0.444354 0.444594 0.445027 0.445714 0.446761 0.448282 0.450456 0.453491 0.457694 0.46344 0.471254 0.481796 0.495963 0.514882 0.540022 0.573174 0.616495 0.672309 0.742819 0.829359 0.931448 1.04565 1.16525 1.28114 1.38445 1.46916 1.53358 1.57953 1.6108 1.63136 1.64464 1.65314 1.65863 1.66222 1.66468 1.66644 1.66781 1.66893 1.66995 1.67089 1.67183 1.67277 1.67374 1.67472 1.67574 1.67678 1.67786 1.67895 1.68007 1.68119 1.68233 1.68346 1.68461 1.68572 1.68684 1.68792 1.68899 1.69002 1.69102 1.69197 1.69289 1.69375 1.69457 1.69533 1.69606 1.69672 1.69734 1.6979 1.69841 1.69887 1.69928 1.69963 1.69995 1.7002 1.70042 1.70057 1.7007 1.70076 1.70079 1.70076 1.7007 1.70057 1.70042 1.7002 1.69995 1.69964 1.69929 1.69887 1.69842 1.6979 1.69735 1.69673 1.69607 1.69535 1.69459 1.69376 1.6929 1.69199 1.69104 1.69004 1.68902 1.68795 1.68687 1.68575 1.68464 1.68349 1.68236 1.68122 1.6801 1.67898 1.67789 1.67681 1.67577 1.67474 1.67376 1.67279 1.67185 1.6709 1.66995 1.66893 1.6678 1.66642 1.66465 1.66217 1.65855 1.65302 1.64445 1.63108 1.61037 1.5789 1.53267 1.46791 1.38284 1.27922 1.16313 1.04347 0.929325 0.827385 0.741031 0.670707 0.615057 0.571873 0.538829 0.513774 0.494921 0.480808 0.470309 0.462534 0.456825 0.452658 0.449659 0.447525 0.446045 0.445042 0.444401 0.444017 0.44383 0.443774 0.44382 0.443927 0.444083 0.44426 0.444456 0.444652 0.44485 0.445038 0.445219 0.445384 0.445538 0.445674 0.445796 0.445899 0.445987 0.446056 0.446109 0.446143 0.446163 0.446169 0.446167 0.44547 0.445478 0.445485 0.445485 0.445473 0.44545 0.445413 0.445363 0.445298 0.445222 0.44513 0.445029 0.444915 0.444794 0.444664 0.444535 0.444407 0.444294 0.444201 0.444152 0.444158 0.444257 0.444479 0.444884 0.445529 0.446515 0.447951 0.450007 0.452882 0.456866 0.462315 0.469729 0.479734 0.493181 0.51114 0.535013 0.566513 0.607724 0.660934 0.728392 0.81164 0.91063 1.02257 1.14142 1.25844 1.36459 1.45314 1.52153 1.57098 1.60498 1.6275 1.64212 1.65151 1.65756 1.66151 1.6642 1.66609 1.66754 1.66871 1.66975 1.67071 1.67165 1.67258 1.67355 1.67452 1.67553 1.67656 1.67763 1.67871 1.67982 1.68093 1.68207 1.68319 1.68432 1.68544 1.68655 1.68762 1.68869 1.68971 1.69071 1.69166 1.69258 1.69344 1.69426 1.69503 1.69575 1.69642 1.69704 1.6976 1.69812 1.69858 1.69899 1.69935 1.69967 1.69992 1.70014 1.7003 1.70042 1.70049 1.70052 1.70049 1.70042 1.7003 1.70014 1.69992 1.69967 1.69935 1.699 1.69858 1.69813 1.69761 1.69705 1.69643 1.69577 1.69504 1.69428 1.69345 1.69259 1.69168 1.69073 1.68973 1.68871 1.68765 1.68657 1.68546 1.68435 1.68322 1.6821 1.68096 1.67985 1.67874 1.67766 1.67659 1.67556 1.67454 1.67357 1.6726 1.67167 1.67072 1.66975 1.66871 1.66753 1.66607 1.66416 1.66146 1.65747 1.65137 1.64192 1.62719 1.6045 1.57028 1.52054 1.45179 1.36289 1.25645 1.13924 1.02036 0.908508 0.809682 0.726626 0.659355 0.606307 0.56523 0.533835 0.510046 0.492152 0.478759 0.468798 0.461424 0.456011 0.452065 0.449228 0.447212 0.445818 0.444876 0.444279 0.443925 0.443756 0.443712 0.443762 0.44387 0.444022 0.444194 0.444382 0.444569 0.444757 0.444933 0.445102 0.445255 0.445395 0.445517 0.445626 0.445715 0.445789 0.445845 0.445885 0.445908 0.445919 0.445918 0.445913 0.445234 0.445245 0.445256 0.445264 0.445261 0.445249 0.445223 0.445185 0.445132 0.445068 0.444989 0.444899 0.444795 0.444685 0.444564 0.444443 0.444322 0.444214 0.444122 0.444071 0.444071 0.444159 0.44436 0.444734 0.445334 0.446256 0.447603 0.449537 0.452245 0.456003 0.461147 0.468148 0.4776 0.490306 0.507278 0.529846 0.559643 0.598671 0.649167 0.71341 0.793124 0.888676 0.997933 1.11558 1.23341 1.34227 1.43481 1.50754 1.56092 1.59805 1.62288 1.63909 1.64953 1.65626 1.66065 1.6636 1.66566 1.66721 1.66844 1.66951 1.67048 1.67143 1.67236 1.67331 1.67428 1.67528 1.6763 1.67736 1.67842 1.67952 1.68063 1.68175 1.68287 1.68399 1.6851 1.6862 1.68728 1.68834 1.68936 1.69035 1.6913 1.69222 1.69308 1.69391 1.69468 1.69541 1.69608 1.69671 1.69727 1.6978 1.69825 1.69868 1.69903 1.69936 1.69961 1.69984 1.7 1.70012 1.70019 1.70022 1.70019 1.70012 1.7 1.69984 1.69962 1.69936 1.69904 1.69868 1.69826 1.6978 1.69728 1.69672 1.69609 1.69542 1.69469 1.69393 1.6931 1.69224 1.69132 1.69038 1.68938 1.68836 1.6873 1.68623 1.68513 1.68402 1.6829 1.68178 1.68066 1.67955 1.67845 1.67739 1.67633 1.67531 1.6743 1.67333 1.67238 1.67144 1.67049 1.66951 1.66843 1.66719 1.66563 1.66356 1.66058 1.65616 1.64937 1.63886 1.62253 1.59752 1.56015 1.50646 1.43337 1.34048 1.23134 1.11337 0.995712 0.886566 0.791191 0.711672 0.647615 0.597278 0.558379 0.528685 0.506198 0.48929 0.476637 0.46723 0.460268 0.455162 0.451443 0.448774 0.446881 0.445577 0.444701 0.444149 0.443827 0.443679 0.443647 0.443704 0.443814 0.443964 0.444132 0.444313 0.444492 0.44467 0.444836 0.444994 0.445135 0.445263 0.445374 0.44547 0.445547 0.445609 0.445654 0.445684 0.445698 0.445701 0.445696 0.445688 0.445027 0.445039 0.445055 0.445068 0.445073 0.445069 0.445052 0.445024 0.444982 0.444928 0.444859 0.444779 0.444685 0.444584 0.444471 0.444358 0.444241 0.444137 0.444047 0.443992 0.443985 0.444059 0.444238 0.444579 0.445132 0.445988 0.447244 0.449052 0.451589 0.455116 0.459948 0.46653 0.475419 0.48737 0.50334 0.524581 0.552642 0.589438 0.637142 0.698038 0.774006 0.865797 0.971929 1.08788 1.20606 1.31742 1.414 1.49138 1.54912 1.58984 1.61735 1.63543 1.64713 1.65468 1.65959 1.66287 1.66513 1.6668 1.6681 1.66922 1.67021 1.67116 1.67209 1.67304 1.67399 1.67499 1.67599 1.67704 1.67809 1.67918 1.68027 1.68138 1.68249 1.68361 1.68471 1.68581 1.68687 1.68793 1.68895 1.68995 1.6909 1.69182 1.69268 1.69352 1.69429 1.69502 1.69569 1.69633 1.6969 1.69743 1.69789 1.69832 1.69868 1.69901 1.69927 1.6995 1.69966 1.69979 1.69985 1.69988 1.69985 1.69979 1.69966 1.6995 1.69927 1.69901 1.69869 1.69833 1.6979 1.69743 1.69691 1.69634 1.69571 1.69503 1.6943 1.69353 1.6927 1.69184 1.69092 1.68997 1.68897 1.68796 1.6869 1.68583 1.68473 1.68364 1.68252 1.68141 1.6803 1.67921 1.67812 1.67707 1.67602 1.67501 1.67402 1.67306 1.67211 1.67117 1.67021 1.66922 1.6681 1.66679 1.6651 1.66282 1.65952 1.65457 1.64695 1.63517 1.61695 1.58925 1.54827 1.4902 1.41246 1.31553 1.20393 1.08564 0.969711 0.86371 0.772105 0.696334 0.63562 0.58807 0.551399 0.523437 0.502274 0.486367 0.474467 0.465622 0.459081 0.454288 0.450801 0.448303 0.446537 0.445326 0.444517 0.444013 0.443725 0.443599 0.443582 0.443647 0.44376 0.443909 0.444073 0.444249 0.444421 0.44459 0.444747 0.444895 0.445026 0.445144 0.445244 0.445329 0.445396 0.445449 0.445484 0.445506 0.445514 0.445512 0.445503 0.445494 0.44485 0.444863 0.444881 0.444898 0.444908 0.44491 0.444901 0.444881 0.444847 0.444802 0.444742 0.444671 0.444586 0.444492 0.444387 0.444279 0.444168 0.444065 0.443975 0.443917 0.443901 0.443959 0.444116 0.444422 0.444927 0.445715 0.446877 0.448557 0.450922 0.454214 0.458732 0.464891 0.473212 0.484406 0.499366 0.519271 0.545582 0.58012 0.624981 0.682435 0.754481 0.842215 0.944784 1.05849 1.17649 1.28997 1.39054 1.4728 1.53535 1.58013 1.61074 1.63103 1.64423 1.65277 1.65831 1.66199 1.6645 1.66632 1.66771 1.66887 1.66989 1.67086 1.67178 1.67273 1.67367 1.67465 1.67564 1.67667 1.67771 1.67879 1.67987 1.68097 1.68206 1.68317 1.68426 1.68536 1.68642 1.68748 1.68849 1.68949 1.69044 1.69136 1.69223 1.69307 1.69385 1.69459 1.69527 1.69591 1.69648 1.69702 1.69749 1.69792 1.69829 1.69862 1.69889 1.69912 1.69929 1.69942 1.69948 1.69951 1.69948 1.69942 1.69929 1.69912 1.69889 1.69863 1.6983 1.69793 1.6975 1.69703 1.69649 1.69592 1.69528 1.6946 1.69386 1.69309 1.69225 1.69138 1.69046 1.68951 1.68852 1.6875 1.68645 1.68538 1.68429 1.6832 1.68209 1.681 1.6799 1.67882 1.67774 1.6767 1.67567 1.67468 1.67369 1.67275 1.6718 1.67087 1.6699 1.66887 1.6677 1.6663 1.66446 1.66193 1.65822 1.65264 1.64403 1.63074 1.6103 1.57947 1.53441 1.47153 1.3889 1.28801 1.17431 1.05623 0.942582 0.840162 0.752619 0.680769 0.623492 0.578779 0.544361 0.518145 0.498315 0.483415 0.472271 0.463994 0.457876 0.453398 0.450145 0.447821 0.446184 0.445067 0.444328 0.443873 0.44362 0.443518 0.443517 0.443591 0.443708 0.443858 0.44402 0.444191 0.444357 0.444519 0.444669 0.444807 0.444929 0.445038 0.445129 0.445205 0.445264 0.445308 0.445337 0.445352 0.445355 0.44535 0.445339 0.445329 0.444701 0.444715 0.444734 0.444753 0.444767 0.444774 0.44477 0.444757 0.44473 0.444692 0.44464 0.444576 0.444498 0.444411 0.444312 0.444209 0.444101 0.444 0.443908 0.443845 0.443819 0.443862 0.443994 0.444265 0.44472 0.445439 0.446507 0.448059 0.45025 0.453308 0.45751 0.463246 0.471003 0.48144 0.495394 0.513967 0.53853 0.570805 0.612802 0.666751 0.734737 0.818155 0.916737 1.02763 1.14481 1.25993 1.36428 1.45157 1.51931 1.56865 1.60284 1.62574 1.64072 1.65044 1.65675 1.66092 1.66374 1.66575 1.66725 1.66848 1.66953 1.67051 1.67144 1.67237 1.67331 1.67427 1.67525 1.67627 1.67729 1.67835 1.67942 1.6805 1.68159 1.68269 1.68377 1.68486 1.68591 1.68697 1.68798 1.68898 1.68993 1.69085 1.69173 1.69257 1.69335 1.6941 1.69478 1.69543 1.69601 1.69656 1.69704 1.69748 1.69785 1.69819 1.69846 1.69869 1.69886 1.699 1.69906 1.6991 1.69906 1.699 1.69886 1.6987 1.69846 1.69819 1.69786 1.69748 1.69704 1.69657 1.69602 1.69544 1.6948 1.69411 1.69337 1.69258 1.69174 1.69087 1.68995 1.689 1.688 1.68699 1.68594 1.68488 1.6838 1.68272 1.68162 1.68053 1.67945 1.67838 1.67732 1.67629 1.67528 1.6743 1.67333 1.67239 1.67145 1.67052 1.66953 1.66847 1.66724 1.66572 1.6637 1.66086 1.65666 1.6503 1.6405 1.6254 1.60235 1.56793 1.51829 1.4502 1.36255 1.25789 1.1426 1.02537 0.914563 0.816144 0.732922 0.665127 0.611348 0.569493 0.537331 0.512858 0.494356 0.48046 0.470071 0.462359 0.456664 0.452501 0.449483 0.447334 0.445827 0.444805 0.444135 0.443732 0.443515 0.443438 0.443453 0.443537 0.44366 0.443812 0.443973 0.44414 0.444302 0.444458 0.4446 0.444732 0.444846 0.444947 0.44503 0.445099 0.445151 0.445189 0.445212 0.445224 0.445223 0.445216 0.445204 0.445194 0.444581 0.444595 0.444614 0.444634 0.44465 0.44466 0.444661 0.444652 0.444631 0.444599 0.444552 0.444495 0.444423 0.444341 0.444247 0.444148 0.444042 0.443941 0.443847 0.443778 0.443742 0.443767 0.443875 0.44411 0.444515 0.445164 0.446138 0.447561 0.449579 0.452404 0.456294 0.461612 0.468808 0.478498 0.491458 0.508714 0.531546 0.561574 0.60071 0.651127 0.714958 0.793841 0.888043 0.995528 1.11121 1.22732 1.3351 1.42744 1.50072 1.55513 1.59342 1.61935 1.63646 1.64762 1.65486 1.65963 1.66282 1.66506 1.66671 1.66802 1.66912 1.67012 1.67105 1.67198 1.67291 1.67386 1.67482 1.67582 1.67683 1.67787 1.67892 1.67999 1.68106 1.68215 1.68322 1.6843 1.68535 1.6864 1.68741 1.68841 1.68936 1.69029 1.69117 1.69201 1.6928 1.69356 1.69425 1.6949 1.69549 1.69605 1.69653 1.69698 1.69736 1.6977 1.69798 1.69822 1.69839 1.69853 1.6986 1.69863 1.6986 1.69853 1.69839 1.69822 1.69798 1.69771 1.69737 1.69698 1.69654 1.69605 1.6955 1.69491 1.69426 1.69357 1.69282 1.69203 1.69118 1.69031 1.68938 1.68843 1.68744 1.68643 1.68538 1.68433 1.68325 1.68218 1.68109 1.68002 1.67895 1.6779 1.67686 1.67585 1.67485 1.67388 1.67293 1.672 1.67107 1.67012 1.66912 1.66801 1.6667 1.66504 1.66278 1.65955 1.65475 1.64745 1.63621 1.61898 1.59287 1.55433 1.4996 1.42597 1.33328 1.22522 1.10897 0.993288 0.885911 0.791882 0.713195 0.649549 0.599294 0.56029 0.530369 0.507621 0.490433 0.477528 0.467886 0.460732 0.455456 0.451606 0.448822 0.446847 0.445468 0.444542 0.443943 0.44359 0.44341 0.443359 0.443392 0.443487 0.443616 0.443771 0.443932 0.444097 0.444255 0.444406 0.444543 0.444669 0.444777 0.444871 0.444948 0.445011 0.445058 0.445091 0.44511 0.445119 0.445117 0.445108 0.445096 0.445087 0.444487 0.444501 0.44452 0.44454 0.444557 0.444569 0.444572 0.444567 0.44455 0.444522 0.444481 0.444428 0.444361 0.444283 0.444193 0.444096 0.443992 0.44389 0.443793 0.443717 0.443669 0.443677 0.443759 0.443958 0.444312 0.444892 0.445772 0.447068 0.448916 0.451511 0.455094 0.459999 0.466646 0.475602 0.487587 0.50355 0.524682 0.552497 0.588802 0.635694 0.695317 0.769496 0.858967 0.962476 1.0759 1.19225 1.30293 1.40019 1.47925 1.53922 1.58217 1.61166 1.63129 1.64417 1.65255 1.65805 1.66172 1.66425 1.66608 1.66749 1.66865 1.66968 1.67063 1.67156 1.67247 1.67341 1.67435 1.67533 1.67632 1.67735 1.67838 1.67943 1.68049 1.68156 1.68262 1.68369 1.68474 1.68578 1.68679 1.68778 1.68874 1.68966 1.69055 1.69139 1.69219 1.69295 1.69365 1.69431 1.69491 1.69547 1.69597 1.69642 1.69681 1.69716 1.69744 1.69768 1.69786 1.698 1.69807 1.6981 1.69807 1.698 1.69786 1.69768 1.69744 1.69716 1.69681 1.69642 1.69597 1.69548 1.69492 1.69432 1.69366 1.69296 1.6922 1.69141 1.69056 1.68968 1.68876 1.6878 1.68681 1.6858 1.68476 1.68372 1.68265 1.68159 1.68052 1.67946 1.67841 1.67737 1.67635 1.67536 1.67438 1.67343 1.67249 1.67157 1.67064 1.66969 1.66865 1.66749 1.66606 1.66422 1.66167 1.65797 1.65243 1.64398 1.63102 1.61124 1.58156 1.53834 1.47804 1.39862 1.30104 1.19012 1.07366 0.96027 0.856889 0.767598 0.69361 0.634164 0.587425 0.551243 0.523527 0.502473 0.486573 0.474641 0.465731 0.459127 0.454262 0.45072 0.448166 0.446362 0.445112 0.444281 0.443752 0.44345 0.443307 0.443283 0.443334 0.443441 0.443578 0.443736 0.443898 0.444062 0.444218 0.444365 0.444498 0.444618 0.444721 0.444811 0.444883 0.444941 0.444984 0.445014 0.445031 0.445038 0.445035 0.445026 0.445015 0.445006 0.44442 0.444432 0.44445 0.44447 0.444487 0.4445 0.444504 0.444501 0.444487 0.444463 0.444425 0.444375 0.444312 0.444238 0.444