# vtk DataFile Version 3.0
Immiscible displacement
ASCII
DATASET RECTILINEAR_GRID
DIMENSIONS 400 100 1
X_COORDINATES 400 double
1 2 3 4 5 6 7 8 9 10 11 12 13 14 15 16 17 18 19 20 21 22 23 24 25 26 27 28 29 30 31 32 33 34 35 36 37 38 39 40 41 42 43 44 45 46 47 48 49 50 51 52 53 54 55 56 57 58 59 60 61 62 63 64 65 66 67 68 69 70 71 72 73 74 75 76 77 78 79 80 81 82 83 84 85 86 87 88 89 90 91 92 93 94 95 96 97 98 99 100 101 102 103 104 105 106 107 108 109 110 111 112 113 114 115 116 117 118 119 120 121 122 123 124 125 126 127 128 129 130 131 132 133 134 135 136 137 138 139 140 141 142 143 144 145 146 147 148 149 150 151 152 153 154 155 156 157 158 159 160 161 162 163 164 165 166 167 168 169 170 171 172 173 174 175 176 177 178 179 180 181 182 183 184 185 186 187 188 189 190 191 192 193 194 195 196 197 198 199 200 201 202 203 204 205 206 207 208 209 210 211 212 213 214 215 216 217 218 219 220 221 222 223 224 225 226 227 228 229 230 231 232 233 234 235 236 237 238 239 240 241 242 243 244 245 246 247 248 249 250 251 252 253 254 255 256 257 258 259 260 261 262 263 264 265 266 267 268 269 270 271 272 273 274 275 276 277 278 279 280 281 282 283 284 285 286 287 288 289 290 291 292 293 294 295 296 297 298 299 300 301 302 303 304 305 306 307 308 309 310 311 312 313 314 315 316 317 318 319 320 321 322 323 324 325 326 327 328 329 330 331 332 333 334 335 336 337 338 339 340 341 342 343 344 345 346 347 348 349 350 351 352 353 354 355 356 357 358 359 360 361 362 363 364 365 366 367 368 369 370 371 372 373 374 375 376 377 378 379 380 381 382 383 384 385 386 387 388 389 390 391 392 393 394 395 396 397 398 399 400 
Y_COORDINATES 100 double
1 2 3 4 5 6 7 8 9 10 11 12 13 14 15 16 17 18 19 20 21 22 23 24 25 26 27 28 29 30 31 32 33 34 35 36 37 38 39 40 41 42 43 44 45 46 47 48 49 50 51 52 53 54 55 56 57 58 59 60 61 62 63 64 65 66 67 68 69 70 71 72 73 74 75 76 77 78 79 80 81 82 83 84 85 86 87 88 89 90 91 92 93 94 95 96 97 98 99 100 
Z_COORDINATES 1 double
0
POINT_DATA 40000
SCALARS rho double 1
LOOKUP_TABLE default
0.479089 0.479099 0.479114 0.47913 0.479147 0.479162 0.479177 0.47919 0.479202 0.479212 0.479221 0.479228 0.479234 0.479239 0.479242 0.479244 0.479244 0.479244 0.479242 0.47924 0.479236 0.479231 0.479226 0.479219 0.479212 0.479204 0.479195 0.479186 0.479176 0.479165 0.479153 0.479141 0.479128 0.479115 0.479101 0.479087 0.479072 0.479056 0.47904 0.479024 0.479007 0.47899 0.478973 0.478955 0.478937 0.478918 0.478899 0.47888 0.478861 0.478841 0.478821 0.478801 0.478781 0.478761 0.47874 0.47872 0.478699 0.478678 0.478658 0.478637 0.478616 0.478595 0.478574 0.478554 0.478533 0.478513 0.478492 0.478472 0.478452 0.478432 0.478412 0.478393 0.478374 0.478355 0.478336 0.478317 0.478299 0.478281 0.478264 0.478247 0.47823 0.478214 0.478197 0.478182 0.478166 0.478152 0.478137 0.478123 0.478109 0.478096 0.478083 0.478071 0.478059 0.478047 0.478036 0.478026 0.478015 0.478005 0.477995 0.477986 0.477977 0.477969 0.47796 0.477952 0.477945 0.477937 0.47793 0.477923 0.477916 0.47791 0.477903 0.477897 0.47789 0.477884 0.477878 0.477873 0.477867 0.477862 0.477856 0.477852 0.477848 0.477845 0.477843 0.477842 0.477844 0.47785 0.47786 0.477875 0.477899 0.477934 0.477983 0.478052 0.478147 0.478277 0.478455 0.478695 0.479018 0.479453 0.480037 0.480818 0.481864 0.483262 0.48513 0.487624 0.490953 0.495396 0.501323 0.509229 0.519767 0.533801 0.552458 0.577193 0.609833 0.652585 0.707922 0.778261 0.865286 0.968884 1.08592 1.20962 1.33041 1.43857 1.5274 1.5948 1.64272 1.67515 1.69636 1.70996 1.71858 1.72401 1.72743 1.72959 1.73096 1.73183 1.73239 1.73275 1.73298 1.73314 1.73324 1.7333 1.73335 1.73338 1.7334 1.73342 1.73343 1.73343 1.73344 1.73344 1.73345 1.73345 1.73345 1.73345 1.73346 1.73346 1.73346 1.73346 1.73346 1.73346 1.73346 1.73346 1.73346 1.73346 1.73346 1.73346 1.73346 1.73346 1.73346 1.73346 1.73345 1.73345 1.73345 1.73345 1.73344 1.73344 1.73343 1.73342 1.7334 1.73338 1.73335 1.73331 1.73324 1.73314 1.73298 1.73275 1.73239 1.73182 1.73094 1.72956 1.72739 1.72393 1.71846 1.70977 1.69605 1.67466 1.64198 1.59372 1.52592 1.43669 1.32821 1.20727 1.08362 0.966787 0.86349 0.776793 0.706763 0.651694 0.609162 0.576696 0.552096 0.533543 0.519589 0.509112 0.501252 0.495361 0.490945 0.487637 0.48516 0.483305 0.481917 0.48088 0.480104 0.479526 0.479096 0.478776 0.478539 0.478365 0.478237 0.478144 0.478077 0.478029 0.477996 0.477973 0.477959 0.47795 0.477945 0.477944 0.477945 0.477947 0.47795 0.477955 0.477959 0.477964 0.47797 0.477975 0.47798 0.477986 0.477991 0.477997 0.478003 0.478008 0.478014 0.47802 0.478026 0.478032 0.478038 0.478045 0.478051 0.478058 0.478065 0.478073 0.47808 0.478088 0.478097 0.478105 0.478114 0.478124 0.478133 0.478144 0.478154 0.478165 0.478176 0.478188 0.4782 0.478213 0.478225 0.478239 0.478252 0.478266 0.478281 0.478296 0.478311 0.478326 0.478342 0.478358 0.478375 0.478391 0.478408 0.478426 0.478443 0.478461 0.478479 0.478497 0.478515 0.478534 0.478553 0.478571 0.47859 0.478609 0.478628 0.478647 0.478667 0.478686 0.478705 0.478724 0.478743 0.478762 0.478781 0.478799 0.478818 0.478836 0.478854 0.478872 0.47889 0.478908 0.478925 0.478942 0.478959 0.478975 0.478991 0.479007 0.479022 0.479037 0.479052 0.479066 0.479079 0.479092 0.479105 0.479117 0.479129 0.479139 0.47915 0.47916 0.479169 0.479177 0.479185 0.479192 0.479198 0.479203 0.479208 0.479211 0.479214 0.479216 0.479216 0.479216 0.479215 0.479212 0.479208 0.479203 0.479196 0.479188 0.479179 0.479168 0.479155 0.479141 0.479126 0.479109 0.479092 0.479075 0.47906 0.47905 0.469452 0.46946 0.469472 0.469487 0.469502 0.469516 0.46953 0.469542 0.469553 0.469563 0.469571 0.469578 0.469584 0.469588 0.469591 0.469593 0.469593 0.469593 0.469591 0.469588 0.469585 0.46958 0.469575 0.469569 0.469562 0.469554 0.469545 0.469536 0.469526 0.469515 0.469504 0.469492 0.46948 0.469467 0.469453 0.469439 0.469425 0.46941 0.469394 0.469378 0.469362 0.469345 0.469328 0.469311 0.469293 0.469275 0.469257 0.469238 0.469219 0.4692 0.469181 0.469161 0.469142 0.469122 0.469102 0.469082 0.469062 0.469042 0.469021 0.469001 0.468981 0.468961 0.46894 0.46892 0.4689 0.46888 0.46886 0.468841 0.468821 0.468802 0.468783 0.468764 0.468745 0.468726 0.468708 0.46869 0.468672 0.468655 0.468638 0.468621 0.468605 0.468589 0.468573 0.468558 0.468543 0.468529 0.468515 0.468501 0.468488 0.468475 0.468462 0.46845 0.468438 0.468427 0.468416 0.468406 0.468396 0.468386 0.468377 0.468368 0.468359 0.46835 0.468342 0.468335 0.468327 0.46832 0.468313 0.468306 0.468299 0.468293 0.468286 0.46828 0.468274 0.468268 0.468262 0.468257 0.468251 0.468246 0.468241 0.468237 0.468232 0.468229 0.468227 0.468227 0.468229 0.468234 0.468243 0.468259 0.468281 0.468315 0.468362 0.468428 0.46852 0.468645 0.468816 0.469047 0.469358 0.469776 0.470337 0.471089 0.472094 0.473438 0.475233 0.477628 0.480825 0.485089 0.490774 0.498354 0.50845 0.521886 0.539734 0.563378 0.594553 0.635361 0.688165 0.755307 0.838495 0.93783 1.05066 1.1709 1.28964 1.3975 1.48752 1.55699 1.60719 1.64168 1.66454 1.67936 1.68884 1.69486 1.69869 1.70112 1.70267 1.70366 1.7043 1.70471 1.70498 1.70516 1.70528 1.70536 1.70541 1.70545 1.70547 1.70549 1.7055 1.70551 1.70552 1.70552 1.70553 1.70553 1.70553 1.70553 1.70553 1.70554 1.70554 1.70554 1.70554 1.70554 1.70554 1.70554 1.70554 1.70554 1.70554 1.70554 1.70554 1.70554 1.70554 1.70554 1.70553 1.70553 1.70553 1.70552 1.70552 1.70551 1.7055 1.70549 1.70547 1.70545 1.70541 1.70536 1.70528 1.70516 1.70498 1.70471 1.7043 1.70365 1.70265 1.70109 1.69864 1.69478 1.68871 1.67915 1.6642 1.64116 1.60641 1.55587 1.48601 1.39561 1.28747 1.16861 1.04844 0.935817 0.836778 0.753907 0.687061 0.634512 0.593913 0.562904 0.539389 0.52164 0.508281 0.498242 0.490708 0.485056 0.480818 0.477642 0.475262 0.47348 0.472146 0.471149 0.470403 0.469848 0.469433 0.469126 0.468898 0.46873 0.468607 0.468518 0.468453 0.468408 0.468376 0.468354 0.46834 0.468332 0.468327 0.468326 0.468327 0.468329 0.468332 0.468337 0.468341 0.468346 0.468351 0.468356 0.468362 0.468367 0.468372 0.468378 0.468383 0.468389 0.468394 0.4684 0.468406 0.468412 0.468418 0.468424 0.468431 0.468437 0.468444 0.468452 0.468459 0.468467 0.468475 0.468484 0.468492 0.468501 0.468511 0.468521 0.468531 0.468542 0.468553 0.468564 0.468576 0.468588 0.468601 0.468613 0.468627 0.46864 0.468654 0.468669 0.468684 0.468699 0.468714 0.46873 0.468746 0.468762 0.468779 0.468796 0.468813 0.46883 0.468847 0.468865 0.468883 0.468901 0.468919 0.468938 0.468956 0.468974 0.468993 0.469012 0.46903 0.469049 0.469067 0.469086 0.469104 0.469123 0.469141 0.469159 0.469177 0.469195 0.469213 0.469231 0.469248 0.469265 0.469282 0.469298 0.469315 0.469331 0.469346 0.469362 0.469376 0.469391 0.469405 0.469419 0.469432 0.469445 0.469457 0.469469 0.46948 0.469491 0.469501 0.46951 0.469519 0.469527 0.469535 0.469542 0.469548 0.469553 0.469557 0.469561 0.469564 0.469565 0.469566 0.469566 0.469564 0.469562 0.469558 0.469553 0.469547 0.469539 0.46953 0.46952 0.469508 0.469495 0.469481 0.469466 0.46945 0.469435 0.469422 0.469414 0.462169 0.462175 0.462185 0.462197 0.46221 0.462222 0.462234 0.462246 0.462256 0.462265 0.462272 0.462278 0.462283 0.462287 0.46229 0.462291 0.462292 0.462291 0.462289 0.462287 0.462283 0.462279 0.462273 0.462267 0.46226 0.462252 0.462244 0.462235 0.462225 0.462215 0.462204 0.462192 0.46218 0.462167 0.462154 0.462141 0.462126 0.462112 0.462097 0.462081 0.462065 0.462049 0.462032 0.462015 0.461998 0.46198 0.461963 0.461944 0.461926 0.461907 0.461889 0.46187 0.461851 0.461831 0.461812 0.461792 0.461773 0.461753 0.461733 0.461714 0.461694 0.461674 0.461654 0.461635 0.461615 0.461596 0.461576 0.461557 0.461538 0.461519 0.461501 0.461482 0.461464 0.461446 0.461428 0.46141 0.461393 0.461376 0.46136 0.461343 0.461327 0.461312 0.461297 0.461282 0.461267 0.461253 0.461239 0.461226 0.461213 0.4612 0.461188 0.461176 0.461165 0.461154 0.461143 0.461133 0.461123 0.461114 0.461105 0.461096 0.461087 0.461079 0.461071 0.461064 0.461056 0.461049 0.461042 0.461036 0.461029 0.461023 0.461017 0.461011 0.461005 0.460999 0.460993 0.460988 0.460982 0.460977 0.460972 0.460968 0.460964 0.460961 0.460959 0.460959 0.46096 0.460965 0.460974 0.460988 0.46101 0.461041 0.461086 0.461149 0.461236 0.461356 0.461518 0.461738 0.462034 0.462432 0.462966 0.463681 0.464636 0.465913 0.467617 0.46989 0.472921 0.47696 0.482342 0.489508 0.499041 0.511712 0.52852 0.550753 0.580029 0.618309 0.667823 0.730827 0.809096 0.903072 1.01082 1.12727 1.24448 1.35348 1.44689 1.521 1.57599 1.6147 1.64092 1.65822 1.66946 1.6767 1.68134 1.68432 1.68624 1.68748 1.68829 1.68881 1.68916 1.68938 1.68953 1.68964 1.68971 1.68975 1.68979 1.68981 1.68983 1.68984 1.68985 1.68985 1.68986 1.68986 1.68987 1.68987 1.68987 1.68987 1.68987 1.68988 1.68988 1.68988 1.68988 1.68988 1.68988 1.68988 1.68988 1.68988 1.68987 1.68987 1.68987 1.68987 1.68987 1.68987 1.68986 1.68986 1.68985 1.68984 1.68983 1.68981 1.68979 1.68976 1.68971 1.68964 1.68954 1.68939 1.68916 1.68881 1.68828 1.68747 1.68622 1.68429 1.68128 1.6766 1.6693 1.65797 1.64053 1.61411 1.57513 1.51979 1.44531 1.35156 1.24233 1.12504 1.00869 0.901167 0.807482 0.729517 0.666791 0.617516 0.579431 0.550309 0.528197 0.511482 0.498883 0.489404 0.48228 0.476931 0.472916 0.469905 0.467647 0.465955 0.464687 0.463739 0.46303 0.462502 0.462108 0.461815 0.461598 0.461439 0.461322 0.461237 0.461175 0.461132 0.461101 0.461081 0.461068 0.46106 0.461056 0.461055 0.461056 0.461058 0.461061 0.461065 0.46107 0.461075 0.46108 0.461085 0.46109 0.461095 0.4611 0.461106 0.461111 0.461117 0.461122 0.461128 0.461133 0.461139 0.461145 0.461151 0.461157 0.461164 0.461171 0.461178 0.461185 0.461193 0.461201 0.461209 0.461217 0.461226 0.461236 0.461245 0.461255 0.461266 0.461276 0.461288 0.461299 0.461311 0.461323 0.461336 0.461349 0.461362 0.461376 0.46139 0.461404 0.461419 0.461434 0.461449 0.461465 0.461481 0.461497 0.461513 0.46153 0.461547 0.461564 0.461581 0.461598 0.461616 0.461634 0.461652 0.46167 0.461688 0.461706 0.461724 0.461742 0.46176 0.461778 0.461796 0.461814 0.461832 0.46185 0.461868 0.461886 0.461903 0.46192 0.461937 0.461954 0.461971 0.461987 0.462003 0.462019 0.462035 0.46205 0.462065 0.46208 0.462094 0.462108 0.462121 0.462134 0.462146 0.462158 0.46217 0.462181 0.462191 0.462201 0.46221 0.462219 0.462227 0.462234 0.462241 0.462247 0.462252 0.462256 0.46226 0.462263 0.462264 0.462265 0.462265 0.462264 0.462262 0.462259 0.462254 0.462248 0.462241 0.462233 0.462223 0.462213 0.462201 0.462188 0.462175 0.462161 0.462149 0.462139 0.462133 0.456671 0.456675 0.456682 0.456692 0.456702 0.456713 0.456724 0.456733 0.456742 0.45675 0.456757 0.456762 0.456767 0.45677 0.456772 0.456773 0.456774 0.456773 0.456771 0.456768 0.456764 0.45676 0.456755 0.456748 0.456742 0.456734 0.456726 0.456717 0.456707 0.456697 0.456686 0.456675 0.456663 0.456651 0.456638 0.456624 0.456611 0.456596 0.456582 0.456566 0.456551 0.456535 0.456519 0.456502 0.456485 0.456468 0.456451 0.456433 0.456415 0.456397 0.456378 0.45636 0.456341 0.456322 0.456303 0.456284 0.456265 0.456246 0.456227 0.456207 0.456188 0.456169 0.45615 0.45613 0.456111 0.456092 0.456073 0.456055 0.456036 0.456018 0.455999 0.455981 0.455963 0.455946 0.455928 0.455911 0.455895 0.455878 0.455862 0.455846 0.45583 0.455815 0.4558 0.455786 0.455771 0.455758 0.455744 0.455731 0.455718 0.455706 0.455694 0.455683 0.455672 0.455661 0.45565 0.455641 0.455631 0.455622 0.455613 0.455604 0.455596 0.455588 0.45558 0.455573 0.455565 0.455559 0.455552 0.455545 0.455539 0.455533 0.455527 0.455521 0.455515 0.45551 0.455504 0.455499 0.455493 0.455488 0.455483 0.455479 0.455475 0.455472 0.45547 0.45547 0.455471 0.455475 0.455483 0.455497 0.455517 0.455547 0.455589 0.455648 0.45573 0.455843 0.455996 0.456203 0.456483 0.456858 0.457361 0.458035 0.458934 0.460135 0.461737 0.463871 0.466714 0.470498 0.475533 0.482227 0.491118 0.502913 0.51853 0.539148 0.56625 0.60164 0.647392 0.705668 0.778307 0.866126 0.967983 1.07997 1.19532 1.30568 1.40333 1.48343 1.54483 1.58933 1.62025 1.6411 1.65489 1.66392 1.66978 1.67359 1.67607 1.67768 1.67874 1.67943 1.67989 1.6802 1.68041 1.68054 1.68064 1.6807 1.68075 1.68078 1.6808 1.68082 1.68083 1.68084 1.68085 1.68085 1.68086 1.68086 1.68086 1.68087 1.68087 1.68087 1.68087 1.68087 1.68087 1.68087 1.68087 1.68087 1.68087 1.68087 1.68087 1.68087 1.68087 1.68086 1.68086 1.68086 1.68085 1.68085 1.68084 1.68083 1.68081 1.68079 1.68075 1.68071 1.68064 1.68055 1.68041 1.6802 1.67989 1.67943 1.67873 1.67767 1.67604 1.67354 1.6697 1.66379 1.6547 1.6408 1.61979 1.58865 1.54385 1.48212 1.40166 1.30371 1.19318 1.07781 0.965963 0.864345 0.776812 0.70446 0.646443 0.600911 0.5657 0.53874 0.518233 0.502702 0.490973 0.482133 0.475478 0.470473 0.466712 0.463887 0.461767 0.460177 0.458985 0.458092 0.457424 0.456926 0.456555 0.456279 0.456074 0.455924 0.455813 0.455733 0.455676 0.455635 0.455606 0.455587 0.455575 0.455568 0.455564 0.455563 0.455564 0.455567 0.45557 0.455574 0.455578 0.455583 0.455588 0.455593 0.455598 0.455603 0.455608 0.455613 0.455619 0.455624 0.455629 0.455635 0.45564 0.455646 0.455652 0.455658 0.455664 0.45567 0.455677 0.455684 0.455691 0.455698 0.455706 0.455714 0.455723 0.455731 0.45574 0.45575 0.45576 0.45577 0.45578 0.455791 0.455802 0.455814 0.455826 0.455838 0.455851 0.455864 0.455877 0.455891 0.455905 0.45592 0.455934 0.455949 0.455964 0.45598 0.455996 0.456012 0.456028 0.456045 0.456061 0.456078 0.456095 0.456112 0.45613 0.456147 0.456165 0.456182 0.4562 0.456217 0.456235 0.456253 0.456271 0.456288 0.456306 0.456323 0.456341 0.456358 0.456375 0.456392 0.456409 0.456426 0.456443 0.456459 0.456475 0.456491 0.456506 0.456521 0.456536 0.456551 0.456565 0.456579 0.456592 0.456605 0.456618 0.45663 0.456642 0.456653 0.456664 0.456674 0.456684 0.456693 0.456701 0.456709 0.456716 0.456723 0.456729 0.456734 0.456738 0.456742 0.456745 0.456747 0.456748 0.456748 0.456747 0.456745 0.456742 0.456738 0.456733 0.456727 0.45672 0.456711 0.456702 0.456691 0.45668 0.456669 0.456658 0.456648 0.45664 0.456636 0.452522 0.452525 0.452531 0.452538 0.452547 0.452556 0.452564 0.452573 0.45258 0.452587 0.452593 0.452597 0.452601 0.452604 0.452606 0.452606 0.452606 0.452605 0.452603 0.4526 0.452596 0.452592 0.452586 0.45258 0.452573 0.452566 0.452558 0.452549 0.45254 0.45253 0.452519 0.452508 0.452496 0.452484 0.452471 0.452458 0.452445 0.452431 0.452416 0.452401 0.452386 0.45237 0.452355 0.452338 0.452322 0.452305 0.452288 0.45227 0.452253 0.452235 0.452217 0.452199 0.452181 0.452162 0.452144 0.452125 0.452106 0.452087 0.452069 0.45205 0.452031 0.452012 0.451993 0.451974 0.451956 0.451937 0.451919 0.4519 0.451882 0.451864 0.451846 0.451828 0.451811 0.451794 0.451777 0.45176 0.451744 0.451727 0.451712 0.451696 0.451681 0.451666 0.451651 0.451637 0.451623 0.45161 0.451596 0.451584 0.451571 0.451559 0.451548 0.451536 0.451525 0.451515 0.451505 0.451495 0.451485 0.451476 0.451468 0.451459 0.451451 0.451443 0.451436 0.451428 0.451421 0.451415 0.451408 0.451402 0.451395 0.451389 0.451383 0.451378 0.451372 0.451367 0.451361 0.451356 0.451351 0.451346 0.451341 0.451337 0.451333 0.45133 0.451328 0.451327 0.451328 0.451332 0.451339 0.451352 0.45137 0.451398 0.451437 0.451493 0.45157 0.451675 0.451818 0.452012 0.452273 0.452625 0.453095 0.453724 0.454564 0.455684 0.457175 0.459161 0.461802 0.465313 0.469975 0.476162 0.484364 0.49522 0.509563 0.528456 0.55324 0.585553 0.627303 0.680537 0.747131 0.828236 0.923471 1.03011 1.14271 1.25378 1.35555 1.44215 1.51094 1.56248 1.59933 1.62479 1.64197 1.6534 1.66094 1.6659 1.66915 1.67129 1.67271 1.67364 1.67427 1.67469 1.67497 1.67517 1.6753 1.67539 1.67545 1.6755 1.67553 1.67555 1.67557 1.67558 1.67559 1.6756 1.67561 1.67561 1.67561 1.67562 1.67562 1.67562 1.67562 1.67562 1.67562 1.67562 1.67562 1.67562 1.67562 1.67562 1.67562 1.67562 1.67562 1.67561 1.67561 1.6756 1.6756 1.67559 1.67557 1.67556 1.67553 1.6755 1.67546 1.67539 1.6753 1.67517 1.67497 1.67469 1.67427 1.67364 1.67269 1.67127 1.66911 1.66583 1.66084 1.65324 1.64173 1.62442 1.59878 1.56168 1.50984 1.44071 1.35379 1.25178 1.1406 1.02805 0.921578 0.826592 0.745764 0.679438 0.626442 0.584892 0.552741 0.528086 0.509294 0.49503 0.484233 0.476078 0.469927 0.465292 0.461803 0.459179 0.457207 0.455725 0.454614 0.453781 0.453157 0.452692 0.452344 0.452086 0.451895 0.451754 0.451651 0.451576 0.451522 0.451484 0.451458 0.45144 0.451429 0.451422 0.451419 0.451418 0.45142 0.451422 0.451425 0.451429 0.451434 0.451438 0.451443 0.451448 0.451453 0.451458 0.451463 0.451468 0.451473 0.451478 0.451484 0.451489 0.451494 0.4515 0.451506 0.451512 0.451518 0.451524 0.45153 0.451537 0.451544 0.451552 0.451559 0.451567 0.451575 0.451584 0.451593 0.451602 0.451612 0.451621 0.451632 0.451642 0.451653 0.451665 0.451677 0.451689 0.451701 0.451714 0.451727 0.45174 0.451754 0.451768 0.451783 0.451797 0.451812 0.451827 0.451843 0.451858 0.451874 0.451891 0.451907 0.451923 0.45194 0.451957 0.451974 0.451991 0.452008 0.452025 0.452042 0.45206 0.452077 0.452095 0.452112 0.452129 0.452146 0.452164 0.452181 0.452198 0.452214 0.452231 0.452248 0.452264 0.45228 0.452296 0.452312 0.452327 0.452343 0.452357 0.452372 0.452386 0.4524 0.452414 0.452427 0.45244 0.452452 0.452464 0.452476 0.452487 0.452497 0.452507 0.452517 0.452526 0.452534 0.452542 0.452549 0.452556 0.452561 0.452567 0.452571 0.452575 0.452578 0.45258 0.452581 0.452581 0.452581 0.452579 0.452577 0.452574 0.452569 0.452564 0.452557 0.45255 0.452542 0.452533 0.452524 0.452514 0.452505 0.452498 0.452492 0.452489 0.449395 0.449397 0.449401 0.449406 0.449413 0.44942 0.449427 0.449434 0.44944 0.449445 0.44945 0.449454 0.449457 0.449459 0.44946 0.449461 0.44946 0.449459 0.449456 0.449453 0.449449 0.449445 0.449439 0.449433 0.449427 0.449419 0.449411 0.449402 0.449393 0.449383 0.449373 0.449362 0.44935 0.449338 0.449326 0.449313 0.449299 0.449286 0.449271 0.449257 0.449242 0.449227 0.449211 0.449195 0.449179 0.449162 0.449145 0.449128 0.449111 0.449094 0.449076 0.449058 0.44904 0.449022 0.449004 0.448986 0.448967 0.448949 0.44893 0.448912 0.448893 0.448875 0.448856 0.448838 0.44882 0.448801 0.448783 0.448765 0.448747 0.44873 0.448712 0.448695 0.448678 0.448661 0.448644 0.448628 0.448611 0.448596 0.44858 0.448565 0.44855 0.448535 0.448521 0.448507 0.448493 0.44848 0.448467 0.448455 0.448442 0.448431 0.448419 0.448408 0.448397 0.448387 0.448377 0.448367 0.448358 0.448349 0.448341 0.448332 0.448324 0.448317 0.448309 0.448302 0.448295 0.448289 0.448282 0.448276 0.44827 0.448264 0.448258 0.448253 0.448247 0.448242 0.448236 0.448231 0.448226 0.448221 0.448217 0.448212 0.448208 0.448205 0.448203 0.448202 0.448203 0.448206 0.448213 0.448224 0.448241 0.448267 0.448303 0.448355 0.448426 0.448524 0.448657 0.448837 0.44908 0.449406 0.449842 0.450425 0.451203 0.452239 0.453617 0.455449 0.457882 0.461109 0.465387 0.471053 0.478545 0.488439 0.501477 0.518609 0.541034 0.570221 0.607905 0.655999 0.716372 0.790428 0.878444 0.978801 1.08742 1.19795 1.30293 1.39578 1.47244 1.53197 1.5759 1.60707 1.62859 1.64316 1.65292 1.65942 1.66373 1.6666 1.66851 1.66979 1.67065 1.67123 1.67162 1.67189 1.67208 1.67221 1.6723 1.67236 1.67241 1.67244 1.67247 1.67248 1.6725 1.67251 1.67252 1.67252 1.67253 1.67253 1.67253 1.67254 1.67254 1.67254 1.67254 1.67254 1.67254 1.67254 1.67254 1.67254 1.67254 1.67253 1.67253 1.67252 1.67252 1.67251 1.6725 1.67249 1.67247 1.67245 1.67241 1.67237 1.6723 1.67221 1.67208 1.67189 1.67162 1.67123 1.67064 1.66978 1.66849 1.66657 1.66368 1.65933 1.65279 1.64296 1.62828 1.60661 1.57523 1.53103 1.4712 1.39422 1.30109 1.19593 1.08537 0.97685 0.876693 0.788929 0.715138 0.655011 0.607133 0.56963 0.540588 0.518279 0.501236 0.488269 0.47843 0.47098 0.465347 0.461094 0.457887 0.45547 0.45365 0.452281 0.451253 0.450482 0.449904 0.449472 0.449149 0.44891 0.448732 0.448602 0.448506 0.448436 0.448386 0.448351 0.448327 0.448311 0.4483 0.448295 0.448292 0.448292 0.448293 0.448296 0.448299 0.448303 0.448307 0.448312 0.448317 0.448322 0.448326 0.448331 0.448336 0.448341 0.448346 0.448351 0.448356 0.448362 0.448367 0.448372 0.448378 0.448384 0.44839 0.448396 0.448402 0.448409 0.448416 0.448423 0.44843 0.448438 0.448446 0.448455 0.448463 0.448472 0.448482 0.448492 0.448502 0.448512 0.448523 0.448534 0.448546 0.448558 0.44857 0.448582 0.448595 0.448608 0.448622 0.448636 0.44865 0.448664 0.448679 0.448694 0.448709 0.448724 0.44874 0.448756 0.448772 0.448788 0.448804 0.448821 0.448837 0.448854 0.448871 0.448888 0.448905 0.448922 0.448939 0.448956 0.448973 0.44899 0.449007 0.449024 0.44904 0.449057 0.449074 0.44909 0.449106 0.449122 0.449138 0.449154 0.449169 0.449184 0.449199 0.449214 0.449228 0.449242 0.449256 0.449269 0.449282 0.449295 0.449307 0.449319 0.44933 0.449341 0.449351 0.449361 0.449371 0.44938 0.449388 0.449396 0.449403 0.449409 0.449415 0.44942 0.449425 0.449429 0.449432 0.449434 0.449435 0.449436 0.449436 0.449435 0.449433 0.44943 0.449427 0.449422 0.449417 0.449411 0.449404 0.449397 0.449389 0.449382 0.449375 0.449369 0.449365 0.449362 0.447037 0.447039 0.447042 0.447046 0.447051 0.447056 0.447061 0.447067 0.447072 0.447076 0.44708 0.447083 0.447085 0.447087 0.447087 0.447087 0.447086 0.447084 0.447082 0.447078 0.447074 0.44707 0.447064 0.447058 0.447051 0.447044 0.447036 0.447027 0.447018 0.447008 0.446998 0.446987 0.446975 0.446964 0.446951 0.446938 0.446925 0.446912 0.446898 0.446883 0.446869 0.446854 0.446838 0.446822 0.446806 0.44679 0.446774 0.446757 0.44674 0.446723 0.446705 0.446688 0.44667 0.446652 0.446635 0.446617 0.446598 0.44658 0.446562 0.446544 0.446526 0.446508 0.446489 0.446471 0.446453 0.446435 0.446418 0.4464 0.446382 0.446365 0.446348 0.446331 0.446314 0.446297 0.446281 0.446265 0.446249 0.446233 0.446218 0.446203 0.446188 0.446174 0.44616 0.446146 0.446133 0.44612 0.446107 0.446095 0.446083 0.446071 0.44606 0.446049 0.446038 0.446028 0.446018 0.446009 0.446 0.445991 0.445982 0.445974 0.445966 0.445959 0.445952 0.445945 0.445938 0.445931 0.445925 0.445919 0.445913 0.445907 0.445902 0.445896 0.445891 0.445885 0.44588 0.445875 0.44587 0.445865 0.445861 0.445857 0.445853 0.44585 0.445847 0.445846 0.445846 0.445849 0.445855 0.445865 0.445881 0.445904 0.445938 0.445985 0.446051 0.446141 0.446264 0.44643 0.446654 0.446954 0.447356 0.447893 0.448608 0.44956 0.450823 0.452501 0.454723 0.457667 0.46156 0.466703 0.473488 0.482424 0.494169 0.509563 0.529664 0.555778 0.589465 0.632486 0.686656 0.753536 0.833918 0.927141 1.03045 1.1388 1.24547 1.34362 1.42799 1.49609 1.54812 1.58617 1.61309 1.63169 1.64436 1.65292 1.65866 1.66252 1.66512 1.66687 1.66805 1.66886 1.66941 1.66979 1.67005 1.67024 1.67037 1.67046 1.67053 1.67058 1.67061 1.67064 1.67066 1.67067 1.67068 1.67069 1.6707 1.6707 1.67071 1.67071 1.67071 1.67072 1.67072 1.67072 1.67072 1.67072 1.67071 1.67071 1.67071 1.67071 1.6707 1.67069 1.67069 1.67068 1.67066 1.67064 1.67061 1.67058 1.67053 1.67046 1.67037 1.67024 1.67006 1.66979 1.66941 1.66885 1.66804 1.66685 1.66509 1.66248 1.65859 1.6528 1.64419 1.63143 1.6127 1.5856 1.54732 1.49501 1.42661 1.34195 1.24358 1.13681 1.02849 0.925324 0.832319 0.752187 0.685554 0.631609 0.588782 0.555255 0.529269 0.509271 0.493957 0.482275 0.473388 0.466641 0.461527 0.457657 0.454732 0.452524 0.450858 0.449603 0.448659 0.44795 0.447418 0.44702 0.446723 0.446502 0.446338 0.446218 0.446129 0.446065 0.446019 0.445987 0.445965 0.44595 0.445941 0.445936 0.445934 0.445934 0.445936 0.445938 0.445942 0.445946 0.44595 0.445955 0.445959 0.445964 0.445969 0.445973 0.445978 0.445983 0.445988 0.445993 0.445998 0.446003 0.446008 0.446014 0.446019 0.446025 0.446031 0.446037 0.446043 0.44605 0.446056 0.446063 0.446071 0.446078 0.446086 0.446095 0.446103 0.446112 0.446121 0.446131 0.446141 0.446151 0.446162 0.446173 0.446184 0.446196 0.446208 0.44622 0.446233 0.446246 0.446259 0.446273 0.446287 0.446301 0.446315 0.44633 0.446345 0.44636 0.446375 0.446391 0.446406 0.446422 0.446438 0.446455 0.446471 0.446488 0.446504 0.446521 0.446537 0.446554 0.446571 0.446588 0.446604 0.446621 0.446638 0.446654 0.446671 0.446687 0.446703 0.446719 0.446735 0.446751 0.446767 0.446782 0.446797 0.446812 0.446827 0.446841 0.446856 0.446869 0.446883 0.446896 0.446909 0.446921 0.446933 0.446945 0.446956 0.446967 0.446977 0.446987 0.446996 0.447005 0.447013 0.447021 0.447028 0.447034 0.44704 0.447046 0.44705 0.447054 0.447057 0.44706 0.447062 0.447063 0.447063 0.447063 0.447061 0.447059 0.447056 0.447053 0.447048 0.447043 0.447038 0.447032 0.447026 0.44702 0.447015 0.447011 0.447008 0.447006 0.445261 0.445262 0.445264 0.445267 0.44527 0.445274 0.445278 0.445282 0.445286 0.445289 0.445292 0.445294 0.445296 0.445297 0.445297 0.445296 0.445295 0.445293 0.44529 0.445286 0.445282 0.445277 0.445271 0.445265 0.445258 0.445251 0.445243 0.445234 0.445225 0.445215 0.445205 0.445194 0.445183 0.445171 0.445159 0.445146 0.445133 0.44512 0.445106 0.445092 0.445077 0.445063 0.445047 0.445032 0.445016 0.445 0.444984 0.444967 0.444951 0.444934 0.444917 0.444899 0.444882 0.444864 0.444847 0.444829 0.444811 0.444793 0.444775 0.444757 0.444739 0.444722 0.444704 0.444686 0.444668 0.44465 0.444633 0.444615 0.444598 0.444581 0.444564 0.444547 0.444531 0.444514 0.444498 0.444482 0.444467 0.444451 0.444436 0.444422 0.444407 0.444393 0.444379 0.444366 0.444352 0.44434 0.444327 0.444315 0.444303 0.444292 0.444281 0.44427 0.44426 0.44425 0.44424 0.444231 0.444222 0.444213 0.444205 0.444197 0.444189 0.444182 0.444174 0.444168 0.444161 0.444154 0.444148 0.444142 0.444136 0.444131 0.444125 0.44412 0.444114 0.444109 0.444104 0.444099 0.444094 0.44409 0.444085 0.444081 0.444077 0.444074 0.444071 0.44407 0.44407 0.444072 0.444077 0.444086 0.4441 0.444122 0.444152 0.444195 0.444255 0.444338 0.444451 0.444603 0.444808 0.445084 0.445452 0.445943 0.446596 0.447463 0.448614 0.450138 0.452154 0.454819 0.458334 0.462967 0.469063 0.47707 0.487564 0.501282 0.51915 0.54232 0.572173 0.610311 0.65845 0.718218 0.790761 0.876191 0.972941 1.07734 1.18374 1.28557 1.37681 1.45353 1.51442 1.56046 1.59396 1.61766 1.63411 1.64538 1.65306 1.65827 1.66181 1.66421 1.66585 1.66698 1.66776 1.6683 1.66867 1.66894 1.66912 1.66926 1.66936 1.66943 1.66948 1.66952 1.66954 1.66957 1.66958 1.6696 1.66961 1.66961 1.66962 1.66962 1.66963 1.66963 1.66963 1.66963 1.66963 1.66963 1.66963 1.66963 1.66962 1.66962 1.66961 1.6696 1.66959 1.66957 1.66955 1.66952 1.66948 1.66943 1.66936 1.66926 1.66913 1.66894 1.66867 1.66829 1.66775 1.66697 1.66584 1.66419 1.66177 1.65821 1.65296 1.64523 1.63388 1.61733 1.59347 1.55977 1.51349 1.45231 1.3753 1.28381 1.18184 1.0754 0.971097 0.874525 0.789321 0.717018 0.657478 0.609541 0.571575 0.541862 0.518806 0.501027 0.48738 0.476942 0.468978 0.462916 0.45831 0.454815 0.452167 0.450164 0.44865 0.447508 0.446647 0.445999 0.445513 0.445149 0.444877 0.444674 0.444524 0.444414 0.444333 0.444275 0.444233 0.444203 0.444183 0.44417 0.444162 0.444158 0.444156 0.444157 0.444159 0.444161 0.444165 0.444169 0.444173 0.444178 0.444182 0.444187 0.444191 0.444196 0.444201 0.444206 0.44421 0.444215 0.44422 0.444225 0.44423 0.444235 0.444241 0.444246 0.444252 0.444258 0.444264 0.444271 0.444277 0.444284 0.444292 0.444299 0.444307 0.444315 0.444324 0.444332 0.444342 0.444351 0.444361 0.444371 0.444381 0.444392 0.444403 0.444415 0.444427 0.444439 0.444451 0.444464 0.444477 0.444491 0.444504 0.444518 0.444532 0.444547 0.444561 0.444576 0.444591 0.444607 0.444622 0.444638 0.444654 0.44467 0.444686 0.444702 0.444718 0.444735 0.444751 0.444768 0.444784 0.444801 0.444817 0.444834 0.44485 0.444866 0.444883 0.444899 0.444915 0.444931 0.444946 0.444962 0.444977 0.444993 0.445008 0.445022 0.445037 0.445051 0.445065 0.445079 0.445092 0.445105 0.445117 0.44513 0.445142 0.445153 0.445164 0.445175 0.445185 0.445195 0.445204 0.445213 0.445221 0.445228 0.445236 0.445242 0.445248 0.445253 0.445258 0.445262 0.445266 0.445269 0.445271 0.445272 0.445273 0.445273 0.445272 0.44527 0.445268 0.445266 0.445262 0.445258 0.445254 0.44525 0.445245 0.445241 0.445237 0.445234 0.445232 0.445231 0.443923 0.443924 0.443925 0.443927 0.443929 0.443932 0.443934 0.443937 0.44394 0.443942 0.443944 0.443945 0.443946 0.443946 0.443946 0.443945 0.443943 0.4