# vtk DataFile Version 3.0
Immiscible displacement
ASCII
DATASET RECTILINEAR_GRID
DIMENSIONS 200 200 1
X_COORDINATES 200 double
1 2 3 4 5 6 7 8 9 10 11 12 13 14 15 16 17 18 19 20 21 22 23 24 25 26 27 28 29 30 31 32 33 34 35 36 37 38 39 40 41 42 43 44 45 46 47 48 49 50 51 52 53 54 55 56 57 58 59 60 61 62 63 64 65 66 67 68 69 70 71 72 73 74 75 76 77 78 79 80 81 82 83 84 85 86 87 88 89 90 91 92 93 94 95 96 97 98 99 100 101 102 103 104 105 106 107 108 109 110 111 112 113 114 115 116 117 118 119 120 121 122 123 124 125 126 127 128 129 130 131 132 133 134 135 136 137 138 139 140 141 142 143 144 145 146 147 148 149 150 151 152 153 154 155 156 157 158 159 160 161 162 163 164 165 166 167 168 169 170 171 172 173 174 175 176 177 178 179 180 181 182 183 184 185 186 187 188 189 190 191 192 193 194 195 196 197 198 199 200 
Y_COORDINATES 200 double
1 2 3 4 5 6 7 8 9 10 11 12 13 14 15 16 17 18 19 20 21 22 23 24 25 26 27 28 29 30 31 32 33 34 35 36 37 38 39 40 41 42 43 44 45 46 47 48 49 50 51 52 53 54 55 56 57 58 59 60 61 62 63 64 65 66 67 68 69 70 71 72 73 74 75 76 77 78 79 80 81 82 83 84 85 86 87 88 89 90 91 92 93 94 95 96 97 98 99 100 101 102 103 104 105 106 107 108 109 110 111 112 113 114 115 116 117 118 119 120 121 122 123 124 125 126 127 128 129 130 131 132 133 134 135 136 137 138 139 140 141 142 143 144 145 146 147 148 149 150 151 152 153 154 155 156 157 158 159 160 161 162 163 164 165 166 167 168 169 170 171 172 173 174 175 176 177 178 179 180 181 182 183 184 185 186 187 188 189 190 191 192 193 194 195 196 197 198 199 200 
Z_COORDINATES 1 double
0
POINT_DATA 40000
SCALARS rho double 1
LOOKUP_TABLE default
0.429213 0.429248 0.429294 0.429341 0.429386 0.429427 0.429465 0.4295 0.429535 0.429572 0.429612 0.429661 0.42972 0.429795 0.42989 0.430014 0.430174 0.430383 0.430656 0.431014 0.431484 0.432103 0.432919 0.433999 0.435426 0.437319 0.43983 0.443167 0.447604 0.453508 0.461366 0.471826 0.485737 0.504217 0.528696 0.560981 0.603239 0.657905 0.727337 0.813161 0.915214 1.03037 1.15194 1.27054 1.37668 1.46381 1.52983 1.57661 1.60806 1.62839 1.64116 1.64903 1.65379 1.65661 1.65823 1.65912 1.65956 1.65973 1.65972 1.65961 1.65944 1.65923 1.659 1.65875 1.65849 1.65823 1.65797 1.65771 1.65744 1.65718 1.65692 1.65667 1.65641 1.65617 1.65592 1.65569 1.65545 1.65523 1.655 1.65479 1.65458 1.65439 1.6542 1.65402 1.65384 1.65368 1.65353 1.65339 1.65325 1.65313 1.65302 1.65292 1.65283 1.65276 1.65269 1.65264 1.65259 1.65257 1.65255 1.65254 1.65255 1.65257 1.6526 1.65264 1.6527 1.65277 1.65284 1.65294 1.65304 1.65315 1.65327 1.65341 1.65355 1.65371 1.65387 1.65405 1.65423 1.65442 1.65462 1.65483 1.65504 1.65527 1.65549 1.65573 1.65597 1.65621 1.65646 1.65672 1.65697 1.65723 1.65749 1.65776 1.65802 1.65829 1.65855 1.65881 1.65906 1.65929 1.6595 1.65967 1.65978 1.65978 1.65962 1.65918 1.65828 1.65665 1.65381 1.64902 1.64111 1.62825 1.60781 1.5762 1.5292 1.46291 1.37552 1.26917 1.15046 1.02893 0.913906 0.812052 0.726447 0.657223 0.602739 0.560629 0.528463 0.504075 0.485665 0.471805 0.461383 0.453551 0.447664 0.443237 0.439904 0.437393 0.435496 0.434061 0.432973 0.432145 0.431513 0.431029 0.430656 0.430368 0.430143 0.429968 0.42983 0.42972 0.429632 0.429561 0.429502 0.429452 0.429409 0.429371 0.429334 0.429297 0.429259 0.429219 0.429176 0.429132 0.429089 0.429057 0.429261 0.429287 0.429326 0.429368 0.429409 0.429447 0.429483 0.429517 0.42955 0.429587 0.429626 0.429675 0.429733 0.429807 0.429901 0.430024 0.430182 0.43039 0.430661 0.431017 0.431484 0.432101 0.432912 0.433986 0.435406 0.437289 0.439787 0.443107 0.44752 0.453394 0.461208 0.471611 0.485444 0.503819 0.528158 0.560259 0.602279 0.656647 0.725724 0.811163 0.912847 1.02774 1.14921 1.26796 1.37445 1.46203 1.52853 1.57571 1.60746 1.62801 1.64093 1.64889 1.6537 1.65656 1.6582 1.65911 1.65955 1.65972 1.65972 1.65962 1.65945 1.65925 1.65901 1.65877 1.65851 1.65825 1.65799 1.65773 1.65746 1.65721 1.65695 1.6567 1.65644 1.6562 1.65595 1.65572 1.65549 1.65527 1.65504 1.65484 1.65463 1.65444 1.65424 1.65407 1.65389 1.65373 1.65358 1.65344 1.6533 1.65319 1.65307 1.65298 1.65288 1.65281 1.65274 1.6527 1.65265 1.65262 1.6526 1.6526 1.6526 1.65263 1.65266 1.6527 1.65275 1.65283 1.6529 1.65299 1.65309 1.65321 1.65333 1.65346 1.6536 1.65376 1.65392 1.6541 1.65427 1.65447 1.65466 1.65487 1.65508 1.65531 1.65553 1.65577 1.656 1.65625 1.65649 1.65675 1.657 1.65726 1.65752 1.65778 1.65804 1.65831 1.65857 1.65883 1.65907 1.6593 1.65951 1.65968 1.65978 1.65978 1.65961 1.65916 1.65825 1.65659 1.65372 1.64888 1.64087 1.62787 1.60721 1.5753 1.52789 1.46114 1.37329 1.26659 1.14775 1.0263 0.911551 0.810065 0.724844 0.655973 0.601783 0.559911 0.527928 0.503679 0.485372 0.47159 0.461225 0.453436 0.447579 0.443176 0.43986 0.437362 0.435474 0.434047 0.432964 0.432141 0.431512 0.431031 0.43066 0.430374 0.43015 0.429977 0.429839 0.429731 0.429643 0.429573 0.429515 0.429467 0.429424 0.429386 0.42935 0.429315 0.429278 0.429241 0.429201 0.429162 0.429126 0.429102 0.429335 0.429353 0.429382 0.429416 0.429451 0.429484 0.429516 0.429548 0.429579 0.429613 0.429651 0.429698 0.429754 0.429827 0.429919 0.43004 0.430195 0.4304 0.430668 0.43102 0.431481 0.432091 0.432894 0.433957 0.435362 0.437227 0.439699 0.442985 0.447352 0.453164 0.460895 0.471185 0.484867 0.50304 0.527109 0.558854 0.600415 0.654209 0.722605 0.807299 0.90827 1.02263 1.14392 1.26291 1.37005 1.45852 1.52593 1.5739 1.60626 1.62723 1.64044 1.64859 1.65352 1.65645 1.65814 1.65907 1.65953 1.65972 1.65973 1.65963 1.65946 1.65926 1.65903 1.65879 1.65854 1.65829 1.65802 1.65777 1.6575 1.65725 1.65699 1.65675 1.65649 1.65625 1.65601 1.65578 1.65555 1.65533 1.65511 1.6549 1.6547 1.65451 1.65432 1.65414 1.65397 1.65381 1.65366 1.65352 1.65339 1.65327 1.65316 1.65307 1.65297 1.6529 1.65283 1.65279 1.65274 1.65272 1.65269 1.65269 1.6527 1.65272 1.65275 1.65279 1.65284 1.65291 1.65299 1.65308 1.65318 1.65329 1.65341 1.65355 1.65368 1.65384 1.654 1.65417 1.65435 1.65454 1.65473 1.65494 1.65515 1.65537 1.65559 1.65582 1.65605 1.6563 1.65654 1.65679 1.65704 1.6573 1.65756 1.65782 1.65808 1.65834 1.65859 1.65885 1.65909 1.65932 1.65952 1.65969 1.65978 1.65978 1.65959 1.65912 1.65818 1.65648 1.65353 1.64857 1.64038 1.62709 1.606 1.57348 1.52529 1.45762 1.3689 1.26156 1.14247 1.02122 0.906995 0.806221 0.721742 0.653549 0.59993 0.558514 0.526883 0.502903 0.484798 0.471165 0.460911 0.453205 0.447409 0.443052 0.439769 0.437296 0.435428 0.434015 0.432943 0.432129 0.431506 0.431031 0.430664 0.430382 0.430162 0.429991 0.429855 0.429749 0.429663 0.429595 0.429538 0.429491 0.42945 0.429414 0.42938 0.429347 0.429314 0.429281 0.429247 0.429214 0.429187 0.42917 0.429422 0.429434 0.429455 0.42948 0.429508 0.429535 0.429562 0.429589 0.429617 0.429649 0.429684 0.429728 0.429782 0.429852 0.429941 0.430059 0.430211 0.430412 0.430674 0.43102 0.431473 0.432073 0.432864 0.43391 0.435294 0.43713 0.439565 0.442801 0.447101 0.452823 0.460433 0.47056 0.484023 0.501903 0.525582 0.556814 0.597713 0.65068 0.718091 0.801702 0.901628 1.01519 1.13617 1.2555 1.36355 1.45329 1.52202 1.57116 1.60442 1.62605 1.63969 1.64812 1.65323 1.65628 1.65804 1.65902 1.65951 1.65971 1.65973 1.65964 1.65948 1.65929 1.65906 1.65883 1.65857 1.65832 1.65806 1.65781 1.65755 1.6573 1.65705 1.6568 1.65655 1.65632 1.65608 1.65585 1.65562 1.65541 1.65519 1.65498 1.65478 1.65459 1.6544 1.65423 1.65406 1.65391 1.65376 1.65362 1.65349 1.65337 1.65326 1.65317 1.65308 1.65301 1.65294 1.65289 1.65285 1.65283 1.6528 1.6528 1.65281 1.65283 1.65286 1.6529 1.65295 1.65302 1.65309 1.65319 1.65328 1.65339 1.65351 1.65364 1.65378 1.65394 1.65409 1.65426 1.65444 1.65463 1.65482 1.65502 1.65522 1.65544 1.65566 1.65589 1.65612 1.65636 1.6566 1.65685 1.6571 1.65735 1.6576 1.65786 1.65812 1.65838 1.65863 1.65888 1.65912 1.65935 1.65954 1.6597 1.65979 1.65977 1.65956 1.65907 1.65808 1.65631 1.65325 1.64811 1.63963 1.6259 1.60416 1.57074 1.52138 1.45239 1.3624 1.25416 1.13475 1.01381 0.900383 0.800652 0.717252 0.650039 0.597243 0.556485 0.525364 0.501771 0.483956 0.470542 0.460449 0.452863 0.447157 0.442865 0.439633 0.437197 0.435356 0.433965 0.432909 0.432108 0.431495 0.431027 0.430667 0.43039 0.430174 0.430007 0.429875 0.429772 0.429688 0.429622 0.429568 0.429523 0.429485 0.429451 0.42942 0.429391 0.429362 0.429335 0.429307 0.429283 0.429263 0.429252 0.429517 0.429525 0.429538 0.429555 0.429575 0.429596 0.429617 0.429639 0.429663 0.429691 0.429723 0.429763 0.429814 0.429881 0.429966 0.430079 0.430227 0.430422 0.430677 0.431015 0.431459 0.432046 0.43282 0.433845 0.435201 0.437 0.439387 0.442558 0.446772 0.452377 0.459832 0.46975 0.482933 0.500437 0.523618 0.554194 0.594246 0.646153 0.712297 0.794507 0.893067 1.00557 1.1261 1.24578 1.35496 1.44632 1.51678 1.56746 1.60193 1.62443 1.63866 1.64748 1.65284 1.65604 1.65789 1.65894 1.65947 1.6597 1.65973 1.65966 1.6595 1.65931 1.65909 1.65886 1.65861 1.65837 1.65811 1.65786 1.65761 1.65736 1.65711 1.65687 1.65662 1.65639 1.65615 1.65593 1.6557 1.65549 1.65527 1.65507 1.65487 1.65469 1.6545 1.65433 1.65416 1.65401 1.65386 1.65373 1.6536 1.65348 1.65337 1.65328 1.65319 1.65312 1.65306 1.65301 1.65297 1.65294 1.65292 1.65292 1.65292 1.65295 1.65297 1.65302 1.65307 1.65314 1.65321 1.6533 1.65339 1.6535 1.65362 1.65375 1.65388 1.65404 1.65419 1.65436 1.65453 1.65472 1.65491 1.65511 1.65531 1.65553 1.65574 1.65597 1.65619 1.65643 1.65667 1.65691 1.65716 1.65741 1.65766 1.65791 1.65816 1.65842 1.65867 1.65892 1.65915 1.65937 1.65956 1.65971 1.65979 1.65975 1.65952 1.65899 1.65794 1.65607 1.65285 1.64746 1.63859 1.62428 1.60167 1.56703 1.51613 1.44542 1.35382 1.24445 1.1247 1.00422 0.891857 0.793491 0.711488 0.645536 0.593795 0.553878 0.523409 0.500312 0.48287 0.469734 0.459849 0.452417 0.446826 0.44262 0.439452 0.437064 0.43526 0.433896 0.432861 0.432076 0.431476 0.431019 0.430667 0.430397 0.430187 0.430024 0.429896 0.429797 0.429717 0.429654 0.429603 0.429561 0.429526 0.429495 0.429468 0.429444 0.42942 0.429398 0.429378 0.429361 0.429347 0.42934 0.429615 0.429619 0.429626 0.429636 0.429649 0.429663 0.429678 0.429695 0.429714 0.429737 0.429765 0.429802 0.429849 0.429911 0.429992 0.4301 0.430242 0.43043 0.430678 0.431005 0.431437 0.432008 0.432762 0.433762 0.435084 0.436839 0.439167 0.442261 0.44637 0.451837 0.459105 0.468773 0.48162 0.498675 0.521259 0.551051 0.59009 0.640725 0.705343 0.785853 0.882731 0.993886 1.11378 1.2338 1.34429 1.43758 1.51016 1.56275 1.59874 1.62234 1.63733 1.64664 1.65232 1.65572 1.65771 1.65883 1.65941 1.65967 1.65973 1.65967 1.65952 1.65934 1.65913 1.6589 1.65866 1.65842 1.65816 1.65792 1.65767 1.65742 1.65717 1.65694 1.65669 1.65646 1.65623 1.65601 1.65578 1.65557 1.65536 1.65517 1.65497 1.65478 1.6546 1.65443 1.65427 1.65412 1.65397 1.65384 1.65371 1.6536 1.65349 1.6534 1.65331 1.65324 1.65318 1.65313 1.65309 1.65306 1.65304 1.65304 1.65304 1.65307 1.65309 1.65314 1.65319 1.65325 1.65332 1.65341 1.65351 1.65362 1.65373 1.65386 1.65399 1.65414 1.65429 1.65446 1.65463 1.65482 1.655 1.6552 1.6554 1.65561 1.65582 1.65605 1.65627 1.65651 1.65674 1.65698 1.65722 1.65747 1.65771 1.65797 1.65821 1.65847 1.65871 1.65896 1.65918 1.6594 1.65958 1.65972 1.65978 1.65973 1.65946 1.65888 1.65775 1.65575 1.65233 1.64662 1.63725 1.62218 1.59847 1.56231 1.5095 1.43667 1.34314 1.23249 1.11241 0.992572 0.881562 0.784876 0.704567 0.640135 0.589661 0.550752 0.521062 0.498558 0.481562 0.468759 0.459123 0.451876 0.446423 0.442321 0.43923 0.4369 0.43514 0.43381 0.4328 0.432035 0.43145 0.431005 0.430663 0.430401 0.430198 0.430041 0.429918 0.429823 0.429747 0.429688 0.42964 0.429602 0.429571 0.429544 0.429522 0.429502 0.429484 0.429468 0.429454 0.429443 0.429436 0.429432 0.429714 0.429714 0.429716 0.42972 0.429726 0.429733 0.429742 0.429754 0.429768 0.429786 0.42981 0.429842 0.429884 0.429942 0.430018 0.43012 0.430255 0.430436 0.430674 0.43099 0.431407 0.431961 0.432692 0.433661 0.434945 0.43665 0.43891 0.441914 0.445904 0.451211 0.458265 0.467646 0.480109 0.496651 0.518552 0.547447 0.585324 0.634496 0.697352 0.77588 0.870767 0.980281 1.09932 1.21961 1.33151 1.42702 1.50208 1.55696 1.59478 1.61973 1.63566 1.64559 1.65166 1.65532 1.65747 1.65869 1.65933 1.65964 1.65972 1.65968 1.65954 1.65937 1.65916 1.65894 1.6587 1.65847 1.65822 1.65798 1.65773 1.65749 1.65724 1.65701 1.65677 1.65654 1.65631 1.65609 1.65587 1.65566 1.65545 1.65526 1.65506 1.65488 1.6547 1.65454 1.65437 1.65422 1.65408 1.65395 1.65382 1.65371 1.6536 1.65352 1.65343 1.65336 1.6533 1.65325 1.65321 1.65318 1.65316 1.65316 1.65317 1.65319 1.65321 1.65326 1.6533 1.65337 1.65344 1.65353 1.65362 1.65373 1.65384 1.65397 1.6541 1.65425 1.6544 1.65456 1.65473 1.65491 1.65509 1.65529 1.65549 1.6557 1.65591 1.65613 1.65635 1.65658 1.65681 1.65705 1.65729 1.65753 1.65777 1.65803 1.65827 1.65852 1.65876 1.659 1.65922 1.65943 1.6596 1.65973 1.65977 1.65969 1.65939 1.65874 1.65751 1.65535 1.65167 1.64557 1.63558 1.61957 1.5945 1.5565 1.50141 1.4261 1.33037 1.21831 1.09798 0.979008 0.869642 0.774945 0.696613 0.633937 0.584918 0.547166 0.518369 0.496543 0.480058 0.467637 0.458286 0.451251 0.445957 0.441973 0.438971 0.436708 0.434998 0.433706 0.432726 0.431983 0.431417 0.430986 0.430655 0.430402 0.430207 0.430056 0.429939 0.429849 0.429778 0.429724 0.42968 0.429646 0.429618 0.429596 0.429578 0.429563 0.429551 0.429541 0.429533 0.429528 0.429525 0.429524 0.42981 0.429808 0.429805 0.429804 0.429804 0.429805 0.429808 0.429814 0.429823 0.429836 0.429855 0.429882 0.42992 0.429972 0.430042 0.430138 0.430266 0.430438 0.430666 0.430969 0.431371 0.431904 0.43261 0.433546 0.434787 0.436434 0.43862 0.441524 0.445382 0.450511 0.457328 0.46639 0.478427 0.494399 0.515544 0.543442 0.580028 0.627568 0.688447 0.76473 0.857325 0.964889 1.08281 1.20323 1.31659 1.41455 1.49244 1.54998 1.58999 1.61655 1.6336 1.64429 1.65085 1.65482 1.65716 1.65851 1.65924 1.65959 1.6597 1.65968 1.65956 1.6594 1.6592 1.65898 1.65875 1.65852 1.65827 1.65803 1.65779 1.65755 1.65731 1.65708 1.65684 1.65662 1.65639 1.65617 1.65595 1.65575 1.65554 1.65535 1.65516 1.65498 1.6548 1.65464 1.65448 1.65433 1.65419 1.65406 1.65393 1.65382 1.65372 1.65363 1.65354 1.65348 1.65341 1.65337 1.65333 1.6533 1.65328 1.65328 1.65328 1.65331 1.65333 1.65337 1.65342 1.65349 1.65356 1.65364 1.65373 1.65384 1.65395 1.65408 1.65421 1.65435 1.6545 1.65467 1.65483 1.65501 1.65519 1.65538 1.65558 1.65579 1.65599 1.65621 1.65643 1.65666 1.65688 1.65712 1.65736 1.6576 1.65784 1.65808 1.65832 1.65857 1.6588 1.65904 1.65925 1.65946 1.65962 1.65974 1.65976 1.65964 1.65929 1.65856 1.65721 1.65485 1.65086 1.64426 1.63352 1.61638 1.58969 1.54951 1.49175 1.41362 1.31545 1.20196 1.08151 0.96366 0.856248 0.763841 0.687748 0.627042 0.579648 0.54318 0.515375 0.494302 0.478383 0.466386 0.457351 0.450553 0.445435 0.441582 0.438679 0.43649 0.434837 0.433587 0.43264 0.431923 0.431376 0.430961 0.430643 0.4304 0.430213 0.43007 0.429959 0.429875 0.429809 0.429759 0.42972 0.42969 0.429667 0.429649 0.429636 0.429626 0.429619 0.429614 0.429612 0.429611 0.429612 0.429614 0.429902 0.429898 0.429892 0.429886 0.42988 0.429876 0.429874 0.429875 0.429878 0.429886 0.4299 0.429922 0.429954 0.430001 0.430065 0.430154 0.430274 0.430437 0.430653 0.430943 0.431327 0.431839 0.432517 0.433418 0.434611 0.436197 0.438301 0.441098 0.444811 0.449748 0.456307 0.465025 0.4766 0.491955 0.51228 0.539097 0.57428 0.620042 0.678753 0.75255 0.842561 0.947851 1.06436 1.18471 1.2995 1.40006 1.4811 1.54169 1.58424 1.61272 1.63112 1.64271 1.64986 1.65421 1.65679 1.65829 1.65911 1.65952 1.65968 1.65968 1.65958 1.65943 1.65924 1.65903 1.6588 1.65857 1.65833 1.6581 1.65785 1.65762 1.65738 1.65715 1.65692 1.6567 1.65647 1.65626 1.65604 1.65584 1.65563 1.65544 1.65525 1.65508 1.6549 1.65474 1.65458 1.65443 1.65429 1.65417 1.65404 1.65393 1.65383 1.65374 1.65366 1.65359 1.65353 1.65348 1.65344 1.65342 1.6534 1.6534 1.6534 1.65342 1.65345 1.65349 1.65354 1.6536 1.65367 1.65376 1.65384 1.65395 1.65406 1.65419 1.65431 1.65446 1.6546 1.65477 1.65493 1.65511 1.65528 1.65548 1.65567 1.65587 1.65608 1.65629 1.65651 1.65674 1.65696 1.65719 1.65742 1.65767 1.6579 1.65814 1.65838 1.65862 1.65885 1.65908 1.65929 1.65949 1.65964 1.65974 1.65973 1.65958 1.65916 1.65834 1.65683 1.65423 1.64986 1.64267 1.63103 1.61254 1.58393 1.5412 1.4804 1.39912 1.29836 1.18345 1.06309 0.946669 0.841534 0.751709 0.678096 0.619551 0.573928 0.538857 0.512127 0.491869 0.476564 0.465026 0.456334 0.449791 0.444864 0.441155 0.438359 0.436251 0.434658 0.433456 0.432544 0.431854 0.431329 0.430931 0.430626 0.430395 0.430217 0.430082 0.429978 0.429899 0.429839 0.429793 0.429759 0.429734 0.429715 0.429702 0.429693 0.429689 0.429686 0.429686 0.429688 0.429692 0.429696 0.4297 0.429989 0.429983 0.429974 0.429964 0.429954 0.429945 0.429938 0.429933 0.429932 0.429935 0.429944 0.429961 0.429988 0.430028 0.430086 0.430168 0.43028 0.430433 0.430637 0.430912 0.431278 0.431767 0.432415 0.433278 0.434422 0.435942 0.437959 0.440641 0.444201 0.448933 0.455219 0.463569 0.474653 0.489353 0.508806 0.534474 0.568161 0.61202 0.668395 0.739485 0.826631 0.929317 1.04407 1.16408 1.28018 1.38346 1.46794 1.53195 1.57742 1.60814 1.62813 1.64079 1.64865 1.65346 1.65633 1.65801 1.65895 1.65944 1.65964 1.65968 1.6596 1.65946 1.65928 1.65907 1.65885 1.65863 1.65839 1.65816 1.65792 1.65769 1.65745 1.65722 1.65699 1.65677 1.65655 1.65634 1.65613 1.65593 1.65572 1.65554 1.65535 1.65517 1.655 1.65484 1.65468 1.65454 1.6544 1.65427 1.65415 1.65404 1.65394 1.65385 1.65377 1.6537 1.65364 1.65359 1.65355 1.65353 1.65351 1.65351 1.65351 1.65353 1.65356 1.6536 1.65365 1.65371 1.65378 1.65386 1.65395 1.65406 1.65417 1.65429 1.65442 1.65456 1.6547 1.65486 1.65503 1.6552 1.65538 1.65557 1.65576 1.65596 1.65616 1.65638 1.65659 1.65681 1.65704 1.65727 1.6575 1.65773 1.65797 1.65821 1.65844 1.65868 1.6589 1.65913 1.65933 1.65951 1.65965 1.65973 1.6597 1.65949 1.659 1.65806 1.65637 1.65348 1.64865 1.64075 1.62802 1.60794 1.57709 1.53144 1.46721 1.38251 1.27904 1.16284 1.04284 0.928185 0.825658 0.738694 0.667781 0.611563 0.567836 0.534255 0.508669 0.489279 0.474626 0.463576 0.455249 0.448979 0.444255 0.440698 0.438016 0.435994 0.434466 0.433313 0.43244 0.431779 0.431277 0.430896 0.430606 0.430386 0.430218 0.430091 0.429994 0.429922 0.429867 0.429827 0.429797 0.429776 0.429762 0.429754 0.42975 0.429749 0.429751 0.429756 0.429762 0.429769 0.429776 0.429781 0.43007 0.430063 0.430051 0.430038 0.430024 0.430011 0.429999 0.42999 0.429984 0.429982 0.429986 0.429998 0.430019 0.430054 0.430105 0.43018 0.430283 0.430425 0.430617 0.430877 0.431224 0.431689 0.432306 0.433129 0.43422 0.435672 0.437599 0.440159 0.443559 0.448077 0.454075 0.462042 0.472612 0.486626 0.505166 0.529629 0.561745 0.603599 0.657497 0.725685 0.809702 0.909448 1.02207 1.14139 1.25861 1.36462 1.45277 1.52058 1.56937 1.60269 1.62454 1.63849 1.64719 1.65254 1.65577 1.65767 1.65875 1.65933 1.65959 1.65966 1.65961 1.65949 1.65931 1.65912 1.6589 1.65868 1.65845 1.65822 1.65799 1.65776 1.65752 1.6573 1.65707 1.65685 1.65663 1.65642 1.65621 1.65601 1.65581 1.65563 1.65544 1.65527 1.65509 1.65494 1.65478 1.65464 1.6545 1.65437 1.65425 1.65415 1.65404 1.65396 1.65387 1.65381 1.65375 1.6537 1.65366 1.65364 1.65362 1.65362 1.65362 1.65364 1.65367 1.65371 1.65376 1.65382 1.65389 1.65397 1.65406 1.65416 1.65427 1.65439 1.65452 1.65466 1.6548 1.65496 1.65512 1.6553 1.65547 1.65566 1.65585 1.65605 1.65625 1.65646 1.65667 1.65689 1.65711 1.65734 1.65757 1.6578 1.65803 1.65827 1.6585 1.65873 1.65895 1.65917 1.65937 1.65954 1.65966 1.65972 1.65964 1.65938 1.6588 1.65772 1.6558 1.65256 1.64719 1.63844 1.62443 1.60247 1.56902 1.52004 1.45202 1.36365 1.25748 1.14018 1.02088 0.908368 0.808782 0.724944 0.656927 0.603179 0.561449 0.529432 0.505046 0.486564 0.472594 0.462055 0.45411 0.448125 0.443614 0.440216 0.437654 0.435722 0.434263 0.433161 0.432328 0.431697 0.431219 0.430857 0.430582 0.430375 0.430217 0.430098 0.430008 0.429942 0.429893 0.429858 0.429833 0.429817 0.429807 0.429803 0.429803 0.429807 0.429813 0.429822 0.429831 0.429842 0.429851 0.429857 0.430145 0.430136 0.430123 0.430106 0.430089 0.430072 0.430056 0.430043 0.430032 0.430026 0.430025 0.430032 0.430048 0.430077 0.430121 0.430188 0.430283 0.430415 0.430594 0.430839 0.431166 0.431606 0.432191 0.432973 0.43401 0.435391 0.437223 0.43966 0.442893 0.447189 0.452891 0.460462 0.470501 0.483806 0.501403 0.52462 0.555108 0.594876 0.646181 0.711295 0.791939 0.888415 0.998497 1.11672 1.23477 1.34343 1.43542 1.50738 1.55992 1.59621 1.62026 1.63571 1.64543 1.65143 1.65508 1.65725 1.6585 1.65919 1.65952 1.65964 1.65961 1.65951 1.65935 1.65917 1.65896 1.65874 1.65851 1.65829 1.65805 1.65783 1.6576 1.65738 1.65715 1.65693 1.65671 1.65651 1.6563 1.6561 1.6559 1.65572 1.65553 1.65536 1.65519 1.65503 1.65488 1.65474 1.6546 1.65447 1.65435 1.65425 1.65415 1.65406 1.65398 1.65392 1.65385 1.65381 1.65377 1.65375 1.65373 1.65373 1.65373 1.65375 1.65377 1.65382 1.65386 1.65392 1.65399 1.65407 1.65416 1.65427 1.65437 1.65449 1.65462 1.65476 1.6549 1.65506 1.65522 1.65539 1.65556 1.65575 1.65594 1.65614 1.65633 1.65654 1.65675 1.65697 1.65719 1.65742 1.65764 1.65787 1.6581 1.65834 1.65856 1.65879 1.65901 1.65922 1.6594 1.65956 1.65967 1.65969 1.65957 1.65924 1.65855 1.6573 1.65511 1.65145 1.64542 1.63566 1.62013 1.59598 1.55954 1.50681 1.43464 1.34244 1.23363 1.11554 0.997352 0.887388 0.791076 0.710606 0.645655 0.594491 0.554841 0.524445 0.5013 0.483757 0.470492 0.460481 0.45293 0.44724 0.44295 0.439717 0.437278 0.43544 0.434051 0.433003 0.43221 0.431611 0.431158 0.430815 0.430556 0.43036 0.430213 0.430103 0.43002 0.42996 0.429917 0.429887 0.429867 0.429855 0.42985 0.42985 0.429854 0.429862 0.429871 0.429883 0.429896 0.429909 0.42992 0.429927 0.430213 0.430203 0.430188 0.430169 0.430149 0.430129 0.43011 0.430092 0.430077 0.430067 0.430061 0.430063 0.430074 0.430097 0.430135 0.430195 0.43028 0.430402 0.430569 0.430797 0.431105 0.431519 0.432072 0.432811 0.433794 0.435102 0.436838 0.439147 0.442211 0.446281 0.45168 0.458845 0.468342 0.480923 0.497557 0.519499 0.54832 0.585943 0.634564 0.696464 0.773517 0.8664 0.973523 1.09019 1.20865 1.31977 1.41569 1.49212 1.54883 1.58855 1.61514 1.63238 1.64329 1.65008 1.65424 1.65674 1.65819 1.65901 1.65943 1.6596 1.65961 1.65953 1.65939 1.65921 1.65901 1.6588 1.65858 1.65836 1.65812 1.6579 1.65767 1.65745 1.65723 1.65701 1.6568 1.65659 1.65638 1.65619 1.65599 1.65581 1.65562 1.65545 1.65528 1.65513 1.65497 1.65483 1.6547 1.65457 1.65445 1.65435 1.65425 1.65416 1.65408 1.65402 1.65396 1.65391 1.65387 1.65385 1.65383 1.65383 1.65383 1.65385 1.65388 1.65392 1.65396 1.65403 1.65409 1.65418 1.65426 1.65437 1.65447 1.65459 1.65472 1.65486 1.655 1.65515 1.65531 1.65548 1.65565 1.65584 1.65602 1.65622 1.65642 1.65663 1.65683 1.65705 1.65727 1.65749 1.65772 1.65795 1.65817 1.6584 1.65862 1.65885 1.65906 1.65927 1.65944 1.65958 1.65966 1.65965 1.65948 1.65906 1.65824 1.65678 1.65427 1.65009 1.64327 1.63231 1.61499 1.58829 1.54843 1.49152 1.41488 1.31878 1.20752 1.08903 0.972424 0.86543 0.77271 0.695826 0.634082 0.585594 0.548081 0.519346 0.497471 0.480887 0.468343 0.458871 0.451723 0.446334 0.442269 0.439205 0.436893 0.43515 0.433833 0.43284 0.432088 0.431522 0.431093 0.43077 0.430526 0.430344 0.430206 0.430105 0.43003 0.429976 0.429938 0.429914 0.429898 0.429891 0.42989 0.429894 0.429901 0.429912 0.429925 0.42994 0.429955 0.42997 0.429983 0.42999 0.430274 0.430263 0.430247 0.430226 0.430204 0.430181 0.430158 0.430137 0.430119 0.430104 0.430094 0.430092 0.430097 0.430115 0.430147 0.430199 0.430275 0.430387 0.430541 0.430753 0.431041 0.43143 0.43195 0.432646 0.433573 0.434808 0.436447 0.438627 0.441519 0.44536 0.450453 0.457208 0.466157 0.478006 0.493666 0.514318 0.541448 0.576887 0.622761 0.681336 0.754608 0.843598 0.947331 1.06191 1.1803 1.29358 1.39341 1.47456 1.53588 1.57947 1.60901 1.62836 1.6407 1.64844 1.6532 1.6561 1.65781 1.65879 1.6593 1.65954 1.65959 1.65955 1.65942 1.65926 1.65907 1.65886 1.65864 1.65843 1.6582 1.65798 1.65775 1.65753 1.65731 1.6571 1.65688 1.65668 1.65647 1.65628 1.65608 1.6559 1.65572 1.65555 1.65538 1.65522 1.65507 1.65493 1.65479 1.65467 1.65455 1.65445 1.65435 1.65427 1.65418 1.65412 1.65406 1.65402 1.65398 1.65395 1.65393 1.65393 1.65394 1.65396 1.65398 1.65402 1.65407 1.65413 1.65419 1.65428 1.65436 1.65447 1.65457 1.65469 1.65481 1.65495 1.65509 1.65525 1.6554 1.65557 1.65575 1.65593 1.65611 1.65631 1.65651 1.65671 1.65692 1.65714 1.65735 1.65757 1.65779 1.65802 1.65824 1.65847 1.65869 1.65891 1.65912 1.65931 1.65947 1.6596 1.65965 1.65959 1.65936 1.65884 1.65785 1.65614 1.65323 1.64844 1.64067 1.62827 1.60885 1.57919 1.53544 1.47393 1.39257 1.29256 1.17919 1.06079 0.946281 0.842684 0.753857 0.680749 0.622322 0.576574 0.541237 0.514187 0.493596 0.477982 0.466167 0.457241 0.450501 0.445416 0.441579 0.438686 0.436502 0.434855 0.433611 0.432673 0.431964 0.43143 0.431026 0.430723 0.430495 0.430325 0.430198 0.430105 0.430037 0.42999 0.429957 0.429938 0.429927 0.429924 0.429926 0.429933 0.429944 0.429958 0.429974 0.429992 0.430009 0.430025 0.430039 0.430048 0.430328 0.430317 0.430299 0.430277 0.430253 0.430227 0.430202 0.430178 0.430156 0.430138 0.430124 0.430117 0.430118 0.43013 0.430155 0.4302 0.430269 0.430369 0.430511 0.430708 0.430976 0.431339 0.431827 0.43248 0.433351 0.434512 0.436054 0.438105 0.440825 0.444435 0.449221 0.455565 0.463965 0.475081 0.489764 0.509123 0.534554 0.567793 0.61088 0.666051 0.735386 0.82021 0.92013 1.03207 1.1498 1.26479 1.36838 1.45445 1.52078 1.56873 1.60169 1.62351 1.63755 1.64642 1.65193 1.6553 1.65732 1.6585 1.65914 1.65946 1.65957 1.65955 1.65945 1.6593 1.65912 1.65892 1.65871 1.6585 1.65827 1.65805 1.65783 1.65761 1.65739 1.65718 1.65697 1.65677 1.65656 1.65637 1.65617 1.65599 1.65581 1.65564 1.65547 1.65532 1.65517 1.65503 1.65489 1.65477 1.65465 1.65455 1.65445 1.65436 1.65428 1.65422 1.65416 1.65412 1.65408 1.65405 1.65404 1.65403 1.65404 1.65406 1.65408 1.65412 1.65417 1.65423 1.65429 1.65438 1.65446 1.65456 1.65467 1.65479 1.65491 1.65505 1.65519 1.65534 1.6555 1.65567 1.65584 1.65602 1.6562 1.6564 1.65659 1.6568 1.657 1.65722 1.65743 1.65765 1.65787 1.6581 1.65832 1.65854 1.65876 1.65897 1.65917 1.65935 1.6595 1.6596 1.65962 1.65951 1.65919 1.65855 1.65737 1.65534 1.65195 1.64642 1.63751 1.62341 1.6015 1.56842 1.52029 1.45377 1.36751 1.26376 1.1487 1.03098 0.919131 0.819354 0.734692 0.665514 0.610484 0.567515 0.53437 0.509013 0.489711 0.47507 0.463984 0.455605 0.449274 0.444495 0.440887 0.438164 0.436109 0.434559 0.433388 0.432505 0.431839 0.431337 0.430959 0.430675 0.430462 0.430305 0.430188 0.430103 0.430042 0.430001 0.429974 0.429959 0.429952 0.429953 0.429959 0.429969 0.429983 0.43 0.430018 0.430038 0.430057 0.430075 0.430089 0.430098 0.430375 0.430364 0.430345 0.430322 0.430295 0.430268 0.43024 0.430214 0.430189 0.430167 0.43015 0.430139 0.430135 0.430142 0.430162 0.4302 0.43026 0.43035 0.430479 0.430661 0.430909 0.431248 0.431703 0.432314 0.433129 0.434217 0.435663 0.437584 0.440133 0.443515 0.447995 0.453931 0.461785 0.472172 0.485885 0.503957 0.527696 0.558738 0.599026 0.650743 0.716025 0.796445 0.892148 1.00088 1.11728 1.23341 1.34046 1.4315 1.50321 1.55605 1.59293 1.61764 1.63372 1.64395 1.65036 1.65432 1.65671 1.65813 1.65893 1.65935 1.65952 1.65955 1.65947 1.65935 1.65917 1.65899 1.65878 1.65857 1.65835 1.65813 1.65791 1.6577 1.65748 1.65727 1.65706 1.65685 1.65665 1.65646 1.65626 1.65608 1.6559 1.65574 1.65557 1.65541 1.65526 1.65513 1.65499 1.65487 1.65475 1.65465 1.65455 1.65446 1.65438 1.65432 1.65426 1.65422 1.65418 1.65416 1.65414 1.65414 1.65414 1.65416 1.65418 1.65422 1.65427 1.65433 1.65439 1.65448 1.65456 1.65466 1.65477 1.65489 1.65501 1.65515 1.65528 1.65544 1.65559 1.65576 1.65593 1.65611 1.6563 1.65649 1.65668 1.65689 1.65709 1.65731 1.65752 1.65774 1.65795 1.65818 1.65839 1.65862 1.65883 1.65904 1.65922 1.6594 1.65952 1.6596 1.65957 1.6594 1.65898 1.65818 1.65675 1.65435 1.65038 1.64394 1.63366 1.61752 1.59271 1.55569 1.50268 1.43078 1.33956 1.23237 1.1162 0.999823 0.891203 0.795648 0.715387 0.650257 0.598671 0.558492 0.527539 0.503868 0.485847 0.472173 0.461813 0.453977 0.448053 0.443578 0.440197 0.437645 0.435718 0.434264 0.433165 0.432338 0.431713 0.431244 0.43089 0.430626 0.430428 0.430283 0.430176 0.430099 0.430046 0.43001 0.429988 0.429977 0.429974 0.429979 0.429988 0.430001 0.430018 0.430037 0.430057 0.430079 0.430099 0.430118 0.430133 0.430143 0.430415 0.430404 0.430384 0.43036 0.430333 0.430303 0.430274 0.430245 0.430217 0.430193 0.430172 0.430157 0.430149 0.430152 0.430166 0.430197 0.430249 0.43033 0.430447 0.430613 0.430842 0.431156 0.431579 0.432149 0.43291 0.433925 0.435275 0.43707 0.439449 0.442605 0.446784 0.452317 0.459633 0.469301 0.482057 0.49886 0.520928 0.549791 0.587293 0.635542 0.696692 0.772515 0.863634 0.968572 1.08293 1.19948 1.30954 1.40548 1.48286 1.54107 1.58243 1.61054 1.62903 1.64091 1.64841 1.65309 1.65594 1.65766 1.65865 1.6592 1.65945 1.65953 1.65949 1.65938 1.65923 1.65905 1.65885 1.65864 1.65843 1.65822 1.658 1.65778 1.65756 1.65736 1.65715 1.65695 1.65674 1.65655 1.65636 1.65618 1.656 1.65583 1.65566 1.65551 1.65536 1.65522 1.65509 1.65497 1.65485 1.65475 1.65465 1.65456 1.65448 1.65442 1.65436 1.65432 1.65428 1.65426 1.65424 1.65424 1.65424 1.65426 1.65428 1.65432 1.65437 1.65443 1.65449 1.65458 1.65466 1.65476 1.65487 1.65498 1.65511 1.65524 1.65538 1.65553 1.65569 1.65586 1.65603 1.65621 1.65639 1.65658 1.65677 1.65698 1.65718 1.65739 1.6576 1.65782 1.65804 1.65826 1.65847 1.65869 1.6589 1.6591 1.65928 1.65943 1.65954 1.65958 1.6595 1.65925 1.6587 1.65771 1.65598 1.65311 1.64842 1.64089 1.62895 1.61039 1.58217 1.54067 1.48228 1.40471 1.30861 1.19844 1.08187 0.967563 0.862745 0.771777 0.69611 0.635104 0.586978 0.549578 0.520796 0.498791 0.482035 0.469313 0.459669 0.45237 0.446846 0.442672 0.439516 0.437132 0.435331 0.433972 0.432945 0.432172 0.431589 0.431151 0.430822 0.430576 0.430394 0.43026 0.430163 0.430094 0.430047 0.430017 0.429999 0.429993 0.429993 0.430001 0.430013 0.430029 0.430048 0.430069 0.430091 0.430114 0.430136 0.430155 0.430171 0.430181 0.430448 0.430437 0.430417 0.430392 0.430364 0.430333 0.430302 0.430271 0.430242 0.430215 0