# vtk DataFile Version 3.0
Immiscible displacement
ASCII
DATASET RECTILINEAR_GRID
DIMENSIONS 400 100 1
X_COORDINATES 400 double
1 2 3 4 5 6 7 8 9 10 11 12 13 14 15 16 17 18 19 20 21 22 23 24 25 26 27 28 29 30 31 32 33 34 35 36 37 38 39 40 41 42 43 44 45 46 47 48 49 50 51 52 53 54 55 56 57 58 59 60 61 62 63 64 65 66 67 68 69 70 71 72 73 74 75 76 77 78 79 80 81 82 83 84 85 86 87 88 89 90 91 92 93 94 95 96 97 98 99 100 101 102 103 104 105 106 107 108 109 110 111 112 113 114 115 116 117 118 119 120 121 122 123 124 125 126 127 128 129 130 131 132 133 134 135 136 137 138 139 140 141 142 143 144 145 146 147 148 149 150 151 152 153 154 155 156 157 158 159 160 161 162 163 164 165 166 167 168 169 170 171 172 173 174 175 176 177 178 179 180 181 182 183 184 185 186 187 188 189 190 191 192 193 194 195 196 197 198 199 200 201 202 203 204 205 206 207 208 209 210 211 212 213 214 215 216 217 218 219 220 221 222 223 224 225 226 227 228 229 230 231 232 233 234 235 236 237 238 239 240 241 242 243 244 245 246 247 248 249 250 251 252 253 254 255 256 257 258 259 260 261 262 263 264 265 266 267 268 269 270 271 272 273 274 275 276 277 278 279 280 281 282 283 284 285 286 287 288 289 290 291 292 293 294 295 296 297 298 299 300 301 302 303 304 305 306 307 308 309 310 311 312 313 314 315 316 317 318 319 320 321 322 323 324 325 326 327 328 329 330 331 332 333 334 335 336 337 338 339 340 341 342 343 344 345 346 347 348 349 350 351 352 353 354 355 356 357 358 359 360 361 362 363 364 365 366 367 368 369 370 371 372 373 374 375 376 377 378 379 380 381 382 383 384 385 386 387 388 389 390 391 392 393 394 395 396 397 398 399 400 
Y_COORDINATES 100 double
1 2 3 4 5 6 7 8 9 10 11 12 13 14 15 16 17 18 19 20 21 22 23 24 25 26 27 28 29 30 31 32 33 34 35 36 37 38 39 40 41 42 43 44 45 46 47 48 49 50 51 52 53 54 55 56 57 58 59 60 61 62 63 64 65 66 67 68 69 70 71 72 73 74 75 76 77 78 79 80 81 82 83 84 85 86 87 88 89 90 91 92 93 94 95 96 97 98 99 100 
Z_COORDINATES 1 double
0
POINT_DATA 40000
SCALARS rho double 1
LOOKUP_TABLE default
0.475739 0.475741 0.475742 0.475744 0.475746 0.475748 0.47575 0.475752 0.475754 0.475755 0.475757 0.475758 0.475759 0.47576 0.475761 0.475762 0.475763 0.475764 0.475764 0.475765 0.475766 0.475766 0.475767 0.475767 0.475768 0.475768 0.475769 0.475769 0.47577 0.47577 0.47577 0.475771 0.475771 0.475771 0.475772 0.475772 0.475773 0.475773 0.475773 0.475774 0.475774 0.475774 0.475775 0.475775 0.475775 0.475776 0.475776 0.475777 0.475777 0.475777 0.475778 0.475778 0.475779 0.475779 0.47578 0.47578 0.475781 0.475781 0.475782 0.475783 0.475783 0.475784 0.475785 0.475785 0.475786 0.475787 0.475787 0.475788 0.475789 0.47579 0.475791 0.475792 0.475793 0.475794 0.475795 0.475796 0.475797 0.475799 0.4758 0.475801 0.475803 0.475804 0.475806 0.475807 0.475809 0.475811 0.475813 0.475814 0.475816 0.475818 0.475821 0.475823 0.475825 0.475828 0.47583 0.475833 0.475835 0.475838 0.475841 0.475844 0.475847 0.475851 0.475854 0.475857 0.475861 0.475865 0.475869 0.475873 0.475877 0.475882 0.475887 0.475892 0.475897 0.475903 0.475908 0.475915 0.475922 0.475929 0.475938 0.475947 0.475958 0.47597 0.475984 0.476001 0.476022 0.476047 0.476078 0.476117 0.476167 0.476231 0.476313 0.476419 0.476558 0.476739 0.476978 0.477292 0.477706 0.478254 0.47898 0.479943 0.481221 0.482919 0.485178 0.488183 0.492184 0.497513 0.504613 0.514069 0.526658 0.543401 0.565619 0.594996 0.6336 0.683834 0.748204 0.828794 0.926338 1.039 1.16138 1.28472 1.39895 1.49584 1.5715 1.62651 1.66434 1.68936 1.70548 1.71571 1.72217 1.72623 1.72878 1.7304 1.73142 1.73207 1.73249 1.73276 1.73294 1.73305 1.73313 1.73318 1.73322 1.73324 1.73326 1.73327 1.73328 1.73328 1.73329 1.73329 1.73329 1.7333 1.7333 1.7333 1.7333 1.7333 1.7333 1.7333 1.7333 1.7333 1.7333 1.7333 1.7333 1.7333 1.7333 1.7333 1.7333 1.7333 1.7333 1.7333 1.7333 1.7333 1.73329 1.73329 1.73329 1.73328 1.73328 1.73327 1.73326 1.73324 1.73322 1.73318 1.73313 1.73306 1.73294 1.73277 1.7325 1.73208 1.73143 1.73042 1.72881 1.72628 1.72225 1.71584 1.70568 1.68967 1.66482 1.62723 1.57252 1.4972 1.40062 1.28661 1.16334 1.04087 0.928007 0.830205 0.749351 0.684741 0.634304 0.595537 0.566033 0.543716 0.526899 0.514252 0.504753 0.497622 0.492268 0.488249 0.48523 0.482961 0.481254 0.47997 0.479003 0.478273 0.477722 0.477305 0.476989 0.47675 0.476567 0.476427 0.47632 0.476237 0.476173 0.476122 0.476083 0.476051 0.476025 0.476004 0.475987 0.475972 0.47596 0.475949 0.475939 0.475931 0.475923 0.475916 0.475909 0.475903 0.475897 0.475892 0.475887 0.475882 0.475877 0.475873 0.475868 0.475864 0.47586 0.475857 0.475853 0.47585 0.475846 0.475843 0.47584 0.475837 0.475835 0.475832 0.47583 0.475827 0.475825 0.475823 0.47582 0.475819 0.475817 0.475815 0.475813 0.475811 0.47581 0.475808 0.475807 0.475806 0.475804 0.475803 0.475802 0.475801 0.4758 0.475799 0.475798 0.475797 0.475796 0.475796 0.475795 0.475794 0.475794 0.475793 0.475793 0.475792 0.475792 0.475791 0.475791 0.475791 0.47579 0.47579 0.47579 0.47579 0.475789 0.475789 0.475789 0.475789 0.475789 0.475789 0.475789 0.475788 0.475788 0.475788 0.475788 0.475788 0.475788 0.475788 0.475788 0.475788 0.475788 0.475788 0.475788 0.475788 0.475788 0.475788 0.475788 0.475788 0.475788 0.475788 0.475788 0.475788 0.475788 0.475787 0.475787 0.475787 0.475787 0.475787 0.475787 0.475786 0.475786 0.475786 0.475785 0.475785 0.475785 0.475784 0.475783 0.475783 0.475782 0.475781 0.47578 0.475779 0.475778 0.475777 0.475775 0.475774 0.475772 0.475771 0.475769 0.475767 0.475766 0.475764 0.466183 0.466184 0.466185 0.466187 0.466189 0.466191 0.466193 0.466194 0.466196 0.466197 0.466199 0.4662 0.466201 0.466202 0.466203 0.466204 0.466205 0.466205 0.466206 0.466207 0.466207 0.466208 0.466208 0.466209 0.466209 0.46621 0.46621 0.466211 0.466211 0.466212 0.466212 0.466212 0.466213 0.466213 0.466213 0.466214 0.466214 0.466214 0.466215 0.466215 0.466215 0.466216 0.466216 0.466216 0.466217 0.466217 0.466218 0.466218 0.466218 0.466219 0.466219 0.46622 0.46622 0.466221 0.466221 0.466221 0.466222 0.466223 0.466223 0.466224 0.466224 0.466225 0.466225 0.466226 0.466227 0.466228 0.466228 0.466229 0.46623 0.466231 0.466232 0.466233 0.466234 0.466235 0.466236 0.466237 0.466238 0.466239 0.46624 0.466242 0.466243 0.466245 0.466246 0.466248 0.466249 0.466251 0.466253 0.466255 0.466256 0.466259 0.466261 0.466263 0.466265 0.466267 0.46627 0.466272 0.466275 0.466278 0.46628 0.466283 0.466286 0.46629 0.466293 0.466296 0.4663 0.466304 0.466308 0.466312 0.466316 0.46632 0.466325 0.46633 0.466335 0.46634 0.466346 0.466352 0.466359 0.466366 0.466374 0.466383 0.466394 0.466406 0.466419 0.466436 0.466456 0.46648 0.46651 0.466548 0.466596 0.466658 0.466737 0.466839 0.466973 0.467148 0.467377 0.46768 0.468078 0.468606 0.469304 0.47023 0.471459 0.473092 0.475262 0.478149 0.481991 0.487105 0.493914 0.502978 0.515036 0.531061 0.55231 0.580382 0.617245 0.665192 0.726635 0.803631 0.897045 1.00541 1.12396 1.24466 1.35792 1.45549 1.53295 1.59021 1.63021 1.65702 1.6745 1.68571 1.69285 1.69737 1.70023 1.70205 1.70321 1.70396 1.70444 1.70475 1.70495 1.70509 1.70518 1.70524 1.70528 1.7053 1.70532 1.70534 1.70535 1.70535 1.70536 1.70536 1.70537 1.70537 1.70537 1.70537 1.70538 1.70538 1.70538 1.70538 1.70538 1.70538 1.70538 1.70538 1.70538 1.70538 1.70538 1.70538 1.70538 1.70538 1.70538 1.70537 1.70537 1.70537 1.70537 1.70536 1.70536 1.70536 1.70535 1.70534 1.70532 1.70531 1.70528 1.70524 1.70518 1.70509 1.70496 1.70476 1.70445 1.70397 1.70323 1.70208 1.70027 1.69742 1.69294 1.68585 1.67472 1.65735 1.63072 1.59096 1.53399 1.45686 1.35959 1.24652 1.12587 1.00722 0.898645 0.80498 0.727729 0.666057 0.617918 0.580899 0.552705 0.531363 0.515266 0.503153 0.494049 0.487209 0.482071 0.478212 0.475312 0.473132 0.471491 0.470257 0.469326 0.468624 0.468094 0.467693 0.467388 0.467157 0.466981 0.466847 0.466743 0.466664 0.466602 0.466553 0.466515 0.466484 0.466459 0.466439 0.466422 0.466408 0.466396 0.466385 0.466376 0.466367 0.46636 0.466353 0.466347 0.466341 0.466335 0.46633 0.466325 0.46632 0.466315 0.466311 0.466307 0.466303 0.466299 0.466296 0.466292 0.466289 0.466286 0.466283 0.46628 0.466277 0.466274 0.466272 0.466269 0.466267 0.466265 0.466263 0.46626 0.466259 0.466257 0.466255 0.466253 0.466252 0.46625 0.466249 0.466247 0.466246 0.466245 0.466244 0.466242 0.466241 0.46624 0.46624 0.466239 0.466238 0.466237 0.466236 0.466236 0.466235 0.466235 0.466234 0.466234 0.466233 0.466233 0.466232 0.466232 0.466232 0.466231 0.466231 0.466231 0.466231 0.46623 0.46623 0.46623 0.46623 0.46623 0.46623 0.466229 0.466229 0.466229 0.466229 0.466229 0.466229 0.466229 0.466229 0.466229 0.466229 0.466229 0.466229 0.466229 0.466229 0.466229 0.466229 0.466229 0.466229 0.466229 0.466229 0.466229 0.466229 0.466229 0.466229 0.466228 0.466228 0.466228 0.466228 0.466228 0.466228 0.466227 0.466227 0.466227 0.466226 0.466226 0.466225 0.466225 0.466224 0.466223 0.466223 0.466222 0.466221 0.46622 0.466218 0.466217 0.466216 0.466214 0.466212 0.466211 0.466209 0.466208 0.466207 0.458971 0.458972 0.458973 0.458975 0.458976 0.458978 0.45898 0.458981 0.458983 0.458984 0.458985 0.458987 0.458988 0.458989 0.45899 0.45899 0.458991 0.458992 0.458993 0.458993 0.458994 0.458994 0.458995 0.458995 0.458996 0.458996 0.458997 0.458997 0.458997 0.458998 0.458998 0.458998 0.458999 0.458999 0.458999 0.459 0.459 0.459 0.459001 0.459001 0.459001 0.459002 0.459002 0.459002 0.459003 0.459003 0.459003 0.459004 0.459004 0.459005 0.459005 0.459005 0.459006 0.459006 0.459007 0.459007 0.459008 0.459008 0.459009 0.459009 0.45901 0.45901 0.459011 0.459012 0.459012 0.459013 0.459014 0.459015 0.459015 0.459016 0.459017 0.459018 0.459019 0.45902 0.459021 0.459022 0.459023 0.459024 0.459025 0.459027 0.459028 0.45903 0.459031 0.459032 0.459034 0.459036 0.459037 0.459039 0.459041 0.459043 0.459045 0.459047 0.459049 0.459052 0.459054 0.459056 0.459059 0.459062 0.459064 0.459067 0.45907 0.459073 0.459077 0.45908 0.459083 0.459087 0.459091 0.459095 0.459099 0.459103 0.459108 0.459112 0.459117 0.459123 0.459128 0.459134 0.459141 0.459148 0.459156 0.459164 0.459174 0.459186 0.459199 0.459215 0.459234 0.459257 0.459286 0.459323 0.459368 0.459427 0.459503 0.459601 0.459728 0.459895 0.460114 0.460403 0.460783 0.461285 0.46195 0.462831 0.464 0.465551 0.467612 0.470352 0.473994 0.478839 0.485281 0.493847 0.505229 0.520334 0.540333 0.566718 0.601325 0.646304 0.703955 0.776332 0.864517 0.967613 1.08178 1.20001 1.31339 1.41359 1.49533 1.55741 1.60188 1.63235 1.65261 1.66581 1.67432 1.67978 1.68328 1.68552 1.68696 1.6879 1.6885 1.6889 1.68916 1.68933 1.68944 1.68952 1.68957 1.68961 1.68964 1.68965 1.68967 1.68968 1.68968 1.68969 1.68969 1.6897 1.6897 1.6897 1.6897 1.68971 1.68971 1.68971 1.68971 1.68971 1.68971 1.68971 1.68971 1.68971 1.68971 1.68971 1.68971 1.68971 1.6897 1.6897 1.6897 1.6897 1.68969 1.68969 1.68969 1.68968 1.68967 1.68966 1.68964 1.68961 1.68958 1.68952 1.68945 1.68933 1.68916 1.6889 1.68851 1.68791 1.68698 1.68555 1.68332 1.67985 1.67443 1.66597 1.65286 1.63274 1.60245 1.55823 1.49645 1.41502 1.31508 1.20185 1.08362 0.969337 0.866032 0.777601 0.704982 0.647115 0.601955 0.567204 0.540705 0.520618 0.505447 0.494014 0.485409 0.478937 0.474071 0.470412 0.46766 0.465589 0.46403 0.462856 0.461971 0.461302 0.460797 0.460415 0.460125 0.459905 0.459737 0.459608 0.459509 0.459433 0.459374 0.459327 0.45929 0.459261 0.459237 0.459218 0.459202 0.459188 0.459176 0.459166 0.459157 0.459149 0.459142 0.459135 0.459129 0.459123 0.459117 0.459112 0.459107 0.459103 0.459098 0.459094 0.45909 0.459086 0.459083 0.459079 0.459076 0.459073 0.45907 0.459067 0.459064 0.459061 0.459058 0.459056 0.459053 0.459051 0.459049 0.459047 0.459045 0.459043 0.459041 0.459039 0.459038 0.459036 0.459035 0.459033 0.459032 0.459031 0.45903 0.459028 0.459027 0.459026 0.459025 0.459025 0.459024 0.459023 0.459022 0.459022 0.459021 0.45902 0.45902 0.459019 0.459019 0.459018 0.459018 0.459018 0.459017 0.459017 0.459017 0.459016 0.459016 0.459016 0.459016 0.459016 0.459015 0.459015 0.459015 0.459015 0.459015 0.459015 0.459015 0.459015 0.459015 0.459015 0.459015 0.459015 0.459015 0.459015 0.459015 0.459015 0.459015 0.459015 0.459015 0.459015 0.459015 0.459015 0.459014 0.459014 0.459014 0.459014 0.459014 0.459014 0.459014 0.459014 0.459014 0.459014 0.459013 0.459013 0.459013 0.459013 0.459012 0.459012 0.459012 0.459011 0.459011 0.45901 0.459009 0.459009 0.459008 0.459007 0.459006 0.459005 0.459003 0.459002 0.459001 0.458999 0.458998 0.458997 0.458995 0.458995 0.453535 0.453535 0.453536 0.453538 0.453539 0.45354 0.453542 0.453543 0.453544 0.453546 0.453547 0.453548 0.453549 0.45355 0.453551 0.453552 0.453552 0.453553 0.453554 0.453554 0.453555 0.453555 0.453556 0.453556 0.453557 0.453557 0.453557 0.453558 0.453558 0.453559 0.453559 0.453559 0.45356 0.45356 0.45356 0.45356 0.453561 0.453561 0.453561 0.453562 0.453562 0.453562 0.453563 0.453563 0.453563 0.453564 0.453564 0.453564 0.453565 0.453565 0.453565 0.453566 0.453566 0.453567 0.453567 0.453568 0.453568 0.453568 0.453569 0.453569 0.45357 0.453571 0.453571 0.453572 0.453572 0.453573 0.453574 0.453575 0.453575 0.453576 0.453577 0.453578 0.453579 0.45358 0.453581 0.453582 0.453583 0.453584 0.453585 0.453586 0.453588 0.453589 0.45359 0.453592 0.453593 0.453595 0.453597 0.453599 0.4536 0.453602 0.453604 0.453606 0.453608 0.453611 0.453613 0.453615 0.453618 0.45362 0.453623 0.453626 0.453629 0.453632 0.453635 0.453638 0.453642 0.453645 0.453649 0.453653 0.453657 0.453661 0.453665 0.45367 0.453675 0.45368 0.453685 0.453691 0.453697 0.453704 0.453712 0.45372 0.45373 0.453741 0.453753 0.453769 0.453787 0.453809 0.453837 0.453871 0.453915 0.453971 0.454043 0.454136 0.454256 0.454415 0.454622 0.454894 0.455254 0.455728 0.456356 0.457186 0.458287 0.459747 0.461685 0.464258 0.467674 0.472211 0.478237 0.486235 0.496844 0.510896 0.529466 0.553921 0.585947 0.627535 0.680858 0.747958 0.830154 0.927174 1.03622 1.15152 1.26504 1.36848 1.4557 1.52414 1.57467 1.61024 1.63443 1.6505 1.66104 1.66788 1.67232 1.6752 1.67706 1.67828 1.67908 1.6796 1.67995 1.68018 1.68034 1.68044 1.68051 1.68056 1.6806 1.68062 1.68064 1.68066 1.68066 1.68067 1.68068 1.68068 1.68069 1.68069 1.68069 1.68069 1.68069 1.68069 1.6807 1.6807 1.6807 1.6807 1.6807 1.6807 1.6807 1.6807 1.68069 1.68069 1.68069 1.68069 1.68069 1.68068 1.68068 1.68067 1.68067 1.68066 1.68064 1.68063 1.6806 1.68057 1.68052 1.68045 1.68034 1.68019 1.67996 1.67961 1.67909 1.6783 1.67709 1.67523 1.67238 1.66797 1.66117 1.65071 1.63474 1.6107 1.57533 1.52506 1.45691 1.36998 1.26676 1.15333 1.038 0.928805 0.83157 0.749135 0.681808 0.628284 0.58653 0.554371 0.529811 0.51116 0.497046 0.48639 0.478356 0.472304 0.467746 0.464314 0.46173 0.459783 0.458316 0.45721 0.456375 0.455745 0.455268 0.454906 0.454632 0.454424 0.454264 0.454143 0.454049 0.453977 0.45392 0.453876 0.453841 0.453813 0.45379 0.453772 0.453756 0.453743 0.453732 0.453722 0.453713 0.453705 0.453698 0.453692 0.453686 0.45368 0.453675 0.45367 0.453665 0.453661 0.453656 0.453652 0.453648 0.453645 0.453641 0.453638 0.453634 0.453631 0.453628 0.453625 0.453622 0.45362 0.453617 0.453615 0.453612 0.45361 0.453608 0.453606 0.453604 0.453602 0.4536 0.453599 0.453597 0.453596 0.453594 0.453593 0.453591 0.45359 0.453589 0.453588 0.453587 0.453586 0.453585 0.453584 0.453583 0.453583 0.453582 0.453581 0.453581 0.45358 0.45358 0.453579 0.453579 0.453578 0.453578 0.453578 0.453577 0.453577 0.453577 0.453576 0.453576 0.453576 0.453576 0.453576 0.453575 0.453575 0.453575 0.453575 0.453575 0.453575 0.453575 0.453575 0.453575 0.453575 0.453575 0.453575 0.453575 0.453575 0.453575 0.453575 0.453575 0.453575 0.453575 0.453575 0.453575 0.453575 0.453575 0.453575 0.453575 0.453575 0.453575 0.453575 0.453575 0.453574 0.453574 0.453574 0.453574 0.453574 0.453574 0.453573 0.453573 0.453573 0.453572 0.453572 0.453571 0.453571 0.45357 0.453569 0.453569 0.453568 0.453567 0.453566 0.453565 0.453563 0.453562 0.453561 0.45356 0.453559 0.453558 0.453557 0.449439 0.449439 0.44944 0.449441 0.449442 0.449443 0.449445 0.449446 0.449447 0.449448 0.449449 0.44945 0.449451 0.449452 0.449453 0.449454 0.449454 0.449455 0.449456 0.449456 0.449457 0.449457 0.449458 0.449458 0.449458 0.449459 0.449459 0.44946 0.44946 0.44946 0.449461 0.449461 0.449461 0.449461 0.449462 0.449462 0.449462 0.449463 0.449463 0.449463 0.449463 0.449464 0.449464 0.449464 0.449465 0.449465 0.449465 0.449466 0.449466 0.449466 0.449467 0.449467 0.449467 0.449468 0.449468 0.449469 0.449469 0.44947 0.44947 0.449471 0.449471 0.449472 0.449472 0.449473 0.449473 0.449474 0.449475 0.449475 0.449476 0.449477 0.449478 0.449479 0.449479 0.44948 0.449481 0.449482 0.449483 0.449485 0.449486 0.449487 0.449488 0.449489 0.449491 0.449492 0.449494 0.449495 0.449497 0.449499 0.4495 0.449502 0.449504 0.449506 0.449508 0.44951 0.449513 0.449515 0.449517 0.44952 0.449523 0.449525 0.449528 0.449531 0.449534 0.449537 0.449541 0.449544 0.449548 0.449552 0.449555 0.44956 0.449564 0.449568 0.449573 0.449578 0.449583 0.449589 0.449595 0.449602 0.449609 0.449617 0.449626 0.449637 0.449649 0.449664 0.449681 0.449702 0.449728 0.449761 0.449802 0.449855 0.449923 0.450011 0.450124 0.450273 0.450468 0.450724 0.451061 0.451506 0.452093 0.45287 0.453898 0.455261 0.457066 0.45946 0.462633 0.466841 0.472419 0.479809 0.489589 0.502514 0.519557 0.541953 0.571231 0.609212 0.657927 0.719383 0.7951 0.885394 0.988502 1.09997 1.21288 1.31925 1.41222 1.48786 1.54564 1.58754 1.61678 1.63663 1.64986 1.65859 1.66432 1.66808 1.67054 1.67216 1.67323 1.67394 1.67441 1.67473 1.67494 1.67509 1.67519 1.67526 1.67531 1.67534 1.67537 1.67539 1.6754 1.67541 1.67542 1.67542 1.67543 1.67543 1.67543 1.67544 1.67544 1.67544 1.67544 1.67544 1.67544 1.67544 1.67544 1.67544 1.67544 1.67544 1.67544 1.67544 1.67544 1.67543 1.67543 1.67542 1.67542 1.67541 1.6754 1.67539 1.67537 1.67535 1.67531 1.67526 1.67519 1.67509 1.67495 1.67473 1.67442 1.67395 1.67324 1.67218 1.67057 1.66813 1.6644 1.6587 1.65003 1.63688 1.61715 1.58809 1.5464 1.4889 1.41353 1.32081 1.21461 1.10175 0.990198 0.88692 0.796408 0.720462 0.658795 0.609896 0.571764 0.542365 0.519874 0.502757 0.489775 0.479952 0.47253 0.466928 0.462701 0.459513 0.457108 0.455294 0.453926 0.452892 0.452111 0.451521 0.451074 0.450735 0.450478 0.450282 0.450132 0.450017 0.449929 0.449861 0.449807 0.449765 0.449732 0.449706 0.449684 0.449666 0.449651 0.449639 0.449628 0.449619 0.44961 0.449603 0.449596 0.449589 0.449584 0.449578 0.449573 0.449568 0.449564 0.449559 0.449555 0.449551 0.449547 0.449544 0.44954 0.449537 0.449534 0.44953 0.449527 0.449525 0.449522 0.449519 0.449517 0.449514 0.449512 0.44951 0.449508 0.449506 0.449504 0.449502 0.4495 0.449499 0.449497 0.449496 0.449494 0.449493 0.449492 0.449491 0.449489 0.449488 0.449487 0.449486 0.449486 0.449485 0.449484 0.449483 0.449483 0.449482 0.449481 0.449481 0.44948 0.44948 0.449479 0.449479 0.449479 0.449478 0.449478 0.449478 0.449477 0.449477 0.449477 0.449477 0.449477 0.449477 0.449476 0.449476 0.449476 0.449476 0.449476 0.449476 0.449476 0.449476 0.449476 0.449476 0.449476 0.449476 0.449476 0.449476 0.449476 0.449476 0.449476 0.449476 0.449476 0.449476 0.449476 0.449476 0.449476 0.449476 0.449476 0.449476 0.449476 0.449476 0.449476 0.449476 0.449476 0.449476 0.449475 0.449475 0.449475 0.449475 0.449474 0.449474 0.449474 0.449473 0.449473 0.449472 0.449472 0.449471 0.44947 0.44947 0.449469 0.449468 0.449467 0.449466 0.449465 0.449464 0.449463 0.449462 0.449461 0.449461 0.446355 0.446355 0.446356 0.446356 0.446357 0.446358 0.446359 0.44636 0.446362 0.446363 0.446363 0.446364 0.446365 0.446366 0.446367 0.446368 0.446368 0.446369 0.446369 0.44637 0.44637 0.446371 0.446371 0.446372 0.446372 0.446372 0.446373 0.446373 0.446373 0.446374 0.446374 0.446374 0.446375 0.446375 0.446375 0.446375 0.446376 0.446376 0.446376 0.446376 0.446377 0.446377 0.446377 0.446377 0.446378 0.446378 0.446378 0.446379 0.446379 0.446379 0.44638 0.44638 0.44638 0.446381 0.446381 0.446381 0.446382 0.446382 0.446383 0.446383 0.446384 0.446384 0.446385 0.446385 0.446386 0.446387 0.446387 0.446388 0.446389 0.446389 0.44639 0.446391 0.446392 0.446393 0.446394 0.446395 0.446396 0.446397 0.446398 0.446399 0.4464 0.446402 0.446403 0.446404 0.446406 0.446407 0.446409 0.446411 0.446412 0.446414 0.446416 0.446418 0.44642 0.446422 0.446424 0.446427 0.446429 0.446432 0.446434 0.446437 0.44644 0.446442 0.446445 0.446449 0.446452 0.446455 0.446459 0.446462 0.446466 0.44647 0.446474 0.446479 0.446483 0.446488 0.446493 0.446499 0.446505 0.446511 0.446518 0.446526 0.446535 0.446545 0.446557 0.44657 0.446587 0.446607 0.446632 0.446663 0.446702 0.446751 0.446815 0.446897 0.447004 0.447143 0.447325 0.447564 0.447878 0.448292 0.448838 0.449559 0.450512 0.451774 0.453442 0.455651 0.458574 0.462442 0.467558 0.474321 0.48325 0.495021 0.510504 0.530802 0.557287 0.591605 0.635631 0.691304 0.760284 0.843374 0.939754 1.04628 1.15732 1.26556 1.3638 1.44687 1.51269 1.56204 1.59745 1.62206 1.63879 1.65 1.65746 1.66241 1.66568 1.66785 1.6693 1.67026 1.67091 1.67135 1.67165 1.67186 1.672 1.6721 1.67216 1.67221 1.67225 1.67228 1.67229 1.67231 1.67232 1.67233 1.67233 1.67234 1.67234 1.67235 1.67235 1.67235 1.67235 1.67235 1.67235 1.67235 1.67235 1.67235 1.67235 1.67235 1.67235 1.67235 1.67234 1.67234 1.67234 1.67233 1.67232 1.67231 1.6723 1.67228 1.67225 1.67222 1.67217 1.6721 1.672 1.67186 1.67166 1.67136 1.67092 1.67028 1.66932 1.66788 1.66572 1.66247 1.65756 1.65014 1.639 1.62237 1.5979 1.56268 1.51357 1.44802 1.36521 1.26718 1.15904 1.04799 0.941352 0.844785 0.761479 0.692283 0.636415 0.592222 0.557768 0.531175 0.510792 0.495243 0.483421 0.474453 0.467661 0.462522 0.458636 0.4557 0.453482 0.451805 0.450538 0.44958 0.448855 0.448306 0.44789 0.447575 0.447334 0.447151 0.447011 0.446904 0.446821 0.446757 0.446706 0.446667 0.446636 0.44661 0.44659 0.446573 0.446559 0.446547 0.446536 0.446527 0.446519 0.446512 0.446505 0.446499 0.446494 0.446488 0.446483 0.446479 0.446474 0.44647 0.446466 0.446462 0.446458 0.446455 0.446451 0.446448 0.446445 0.446442 0.446439 0.446436 0.446433 0.446431 0.446428 0.446426 0.446424 0.446422 0.44642 0.446418 0.446416 0.446414 0.446412 0.446411 0.446409 0.446408 0.446406 0.446405 0.446404 0.446403 0.446402 0.446401 0.4464 0.446399 0.446398 0.446397 0.446396 0.446395 0.446395 0.446394 0.446394 0.446393 0.446393 0.446392 0.446392 0.446391 0.446391 0.446391 0.44639 0.44639 0.44639 0.44639 0.44639 0.446389 0.446389 0.446389 0.446389 0.446389 0.446389 0.446389 0.446389 0.446389 0.446389 0.446389 0.446389 0.446389 0.446389 0.446389 0.446389 0.446389 0.446389 0.446389 0.446389 0.446389 0.446389 0.446389 0.446389 0.446389 0.446389 0.446389 0.446389 0.446389 0.446389 0.446389 0.446389 0.446389 0.446389 0.446389 0.446389 0.446388 0.446388 0.446388 0.446388 0.446387 0.446387 0.446387 0.446386 0.446386 0.446385 0.446385 0.446384 0.446383 0.446383 0.446382 0.446381 0.44638 0.446379 0.446378 0.446377 0.446377 0.446376 0.446376 0.444033 0.444033 0.444034 0.444034 0.444035 0.444036 0.444037 0.444038 0.444039 0.44404 0.44404 0.444041 0.444042 0.444043 0.444043 0.444044 0.444045 0.444045 0.444046 0.444046 0.444047 0.444047 0.444048 0.444048 0.444048 0.444049 0.444049 0.444049 0.44405 0.44405 0.44405 0.44405 0.444051 0.444051 0.444051 0.444051 0.444052 0.444052 0.444052 0.444052 0.444053 0.444053 0.444053 0.444053 0.444054 0.444054 0.444054 0.444054 0.444055 0.444055 0.444055 0.444056 0.444056 0.444056 0.444057 0.444057 0.444057 0.444058 0.444058 0.444059 0.444059 0.44406 0.44406 0.444061 0.444061 0.444062 0.444062 0.444063 0.444064 0.444065 0.444065 0.444066 0.444067 0.444068 0.444069 0.44407 0.444071 0.444072 0.444073 0.444074 0.444075 0.444076 0.444078 0.444079 0.444081 0.444082 0.444084 0.444085 0.444087 0.444089 0.444091 0.444093 0.444095 0.444097 0.444099 0.444101 0.444103 0.444106 0.444108 0.444111 0.444114 0.444117 0.444119 0.444123 0.444126 0.444129 0.444132 0.444136 0.44414 0.444144 0.444148 0.444152 0.444156 0.444161 0.444166 0.444172 0.444177 0.444184 0.44419 0.444198 0.444206 0.444216 0.444227 0.44424 0.444256 0.444275 0.444299 0.444328 0.444364 0.444411 0.44447 0.444547 0.444646 0.444776 0.444945 0.445166 0.445457 0.44584 0.446344 0.447009 0.447887 0.449047 0.450578 0.4526 0.455271 0.458798 0.463452 0.469589 0.47767 0.488296 0.502235 0.520464 0.5442 0.574918 0.614325 0.664259 0.726443 0.802044 0.891031 0.991475 1.09911 1.20764 1.30997 1.40004 1.47426 1.53194 1.57465 1.60513 1.62629 1.64073 1.65047 1.65701 1.66139 1.66432 1.66628 1.66761 1.6685 1.66911 1.66953 1.66982 1.67002 1.67016 1.67026 1.67033 1.67038 1.67042 1.67044 1.67046 1.67048 1.67049 1.6705 1.67051 1.67051 1.67052 1.67052 1.67052 1.67052 1.67053 1.67053 1.67053 1.67053 1.67053 1.67052 1.67052 1.67052 1.67052 1.67051 1.67051 1.6705 1.67049 1.67048 1.67047 1.67045 1.67042 1.67038 1.67033 1.67026 1.67016 1.67002 1.66982 1.66954 1.66912 1.66852 1.66762 1.66631 1.66435 1.66144 1.65709 1.6506 1.64091 1.62656 1.60551 1.57521 1.53271 1.47528 1.40131 1.31147 1.20929 1.10081 0.993108 0.892517 0.803333 0.727522 0.665138 0.615026 0.57547 0.544631 0.520799 0.502494 0.488496 0.477825 0.469709 0.463546 0.458871 0.455329 0.452646 0.450614 0.449076 0.447911 0.447029 0.446361 0.445854 0.445469 0.445177 0.444954 0.444784 0.444653 0.444553 0.444476 0.444416 0.444369 0.444332 0.444302 0.444278 0.444259 0.444243 0.444229 0.444218 0.444208 0.444199 0.444191 0.444184 0.444178 0.444172 0.444167 0.444161 0.444156 0.444152 0.444147 0.444143 0.444139 0.444136 0.444132 0.444128 0.444125 0.444122 0.444119 0.444116 0.444113 0.44411 0.444108 0.444105 0.444103 0.4441 0.444098 0.444096 0.444094 0.444092 0.44409 0.444089 0.444087 0.444085 0.444084 0.444082 0.444081 0.44408 0.444079 0.444077 0.444076 0.444075 0.444074 0.444074 0.444073 0.444072 0.444071 0.44407 0.44407 0.444069 0.444069 0.444068 0.444068 0.444067 0.444067 0.444067 0.444066 0.444066 0.444066 0.444065 0.444065 0.444065 0.444065 0.444065 0.444065 0.444065 0.444064 0.444064 0.444064 0.444064 0.444064 0.444064 0.444064 0.444064 0.444064 0.444064 0.444064 0.444064 0.444064 0.444065 0.444065 0.444065 0.444065 0.444065 0.444065 0.444065 0.444065 0.444065 0.444065 0.444065 0.444065 0.444065 0.444065 0.444065 0.444065 0.444065 0.444065 0.444065 0.444064 0.444064 0.444064 0.444064 0.444064 0.444063 0.444063 0.444063 0.444062 0.444062 0.444062 0.444061 0.44406 0.44406 0.444059 0.444058 0.444058 0.444057 0.444056 0.444055 0.444055 0.444054 0.444054 0.444054 0.442286 0.442286 0.442286 0.442287 0.442287 0.442288 0.442289 0.44229 0.44229 0.442291 0.442292 0.442293 0.442293 0.442294 0.442295 0.442295 0.442296 0.442296 0.442297 0.442297 0.442298 0.442298 0.442298 0.442299 0.442299 0.442299 0.4423 0.4423 0.4423 0.442301 0.442301 0.442301 0.442301 0.442302 0.442302 0.442302 0.442302 0.442302 0.442303 0.442303 0.442303 0.442303 0.442304 0.442304 0.442304 0.442304 0.442304 0.442305 0.442305 0.442305 0.442306 0.442306 0.442306 0.442306 0.442307 0.442307 0.442308 0.442308 0.442308 0.442309 0.442309 0.44231 0.44231 0.442311 0.442311 0.442312 0.442312 0.442313 0.442314 0.442314 0.442315 0.442316 0.442317 0.442318 0.442318 0.442319 0.44232 0.442321 0.442322 0.442324 0.442325 0.442326 0.442327 0.442329 0.44233 0.442332 0.442333 0.442335 0.442336 0.442338 0.44234 0.442342 0.442344 0.442346 0.442348 0.44235 0.442352 0.442355 0.442357 0.44236 0.442363 0.442365 0.442368 0.442371 0.442374 0.442378 0.442381 0.442385 0.442388 0.442392 0.442396 0.4424 0.442405 0.442409 0.442414 0.442419 0.442425 0.442431 0.442437 0.442445 0.442453 0.442462 0.442473 0.442485 0.4425 0.442518 0.44254 0.442568 0.442602 0.442645 0.442701 0.442772 0.442864 0.442984 0.44314 0.443344 0.443612 0.443964 0.444427 0.445037 0.44584 0.446898 0.448294 0.450133 0.452556 0.455748 0.45995 0.465476 0.472733 0.482248 0.494697 0.510936 0.532034 0.559298 0.594265 0.638642 0.694145 0.762172 0.843303 0.936651 1.0393 1.14621 1.25088 1.34684 1.42922 1.49579 1.54682 1.58432 1.61101 1.62959 1.64233 1.65099 1.65686 1.66082 1.66351 1.66533 1.66658 1.66743 1.66802 1.66842 1.66871 1.66891 1.66905 1.66915 1.66923 1.66928 1.66932 1.66935 1.66937 1.66939 1.6694 1.66941 1.66942 1.66943 1.66943 1.66944 1.66944 1.66944 1.66944 1.66944 1.66944 1.66944 1.66944 1.66944 1.66943 1.66943 1.66942 1.66941 1.6694 1.66939 1.66937 1.66935 1.66932 1.66928 1.66923 1.66916 1.66906 1.66891 1.66871 1.66843 1.66803 1.66744 1.66659 1.66536 1.66354 1.66088 1.65693 1.6511 1.64249 1.62982 1.61135 1.5848 1.54749 1.49668 1.43037 1.34822 1.25244 1.14786 1.04094 0.938183 0.844666 0.763337 0.695109 0.639423 0.594887 0.559788 0.532417 0.511233 0.494928 0.482428 0.472872 0.465584 0.460035 0.455815 0.452609 0.450174 0.448327 0.446926 0.445862 0.445055 0.444443 0.443978 0.443624 0.443354 0.443148 0.442991 0.442871 0.442778 0.442706 0.44265 0.442606 0.442571 0.442544 0.442521 0.442503 0.442488 0.442475 0.442464 0.442454 0.442446 0.442439 0.442432 0.442426 0.44242 0.442414 0.442409 0.442405 0.4424 0.442396 0.442392 0.442388 0.442384 0.44238 0.442377 0.442374 0.442371 0.442368 0.442365 0.442362 0.442359 0.442357 0.442354 0.442352 0.44235 0.442347 0.442345 0.442343 0.442341 0.44234 0.442338 0.442336 0.442335 0.442333 0.442332 0.442331 0.442329 0.442328 0.442327 0.442326 0.442325 0.442324 0.442323 0.442322 0.442322 0.442321 0.44232 0.44232 0.442319 0.442318 0.442318 0.442317 0.442317 0.442317 0.442316 0.442316 0.442316 0.442316 0.442315 0.442315 0.442315 0.442315 0.442315 0.442315 0.442315 0.442314 0.442314 0.442314 0.442314 0.442314 0.442314 0.442314 0.442314 0.442314 0.442315 0.442315 0.442315 0.442315 0.442315 0.442315 0.442315 0.442315 0.442315 0.442315 0.442315 0.442315 0.442315 0.442315 0.442315 0.442315 0.442315 0.442315 0.442315 0.442315 0.442315 0.442315 0.442315 0.442315 0.442315 0.442315 0.442315 0.442314 0.442314 0.442314 0.442314 0.442313 0.442313 0.442312 0.442312 0.442311 0.442311 0.44231 0.44231 0.442309 0.442309 0.442308 0.442307 0.442307 0.442306 0.442306 0.442306 0.440971 0.440971 0.440972 0.440972 0.440972 0.440973 0.440974 0.440974 0.440975 0.440976 0.440976 0.440977 0.440978 0.440978 0.440979 0.440979 0.44098 0.44098 0.440981 0.440981 0.