# vtk DataFile Version 3.0
Immiscible displacement
ASCII
DATASET RECTILINEAR_GRID
DIMENSIONS 400 100 1
X_COORDINATES 400 double
1 2 3 4 5 6 7 8 9 10 11 12 13 14 15 16 17 18 19 20 21 22 23 24 25 26 27 28 29 30 31 32 33 34 35 36 37 38 39 40 41 42 43 44 45 46 47 48 49 50 51 52 53 54 55 56 57 58 59 60 61 62 63 64 65 66 67 68 69 70 71 72 73 74 75 76 77 78 79 80 81 82 83 84 85 86 87 88 89 90 91 92 93 94 95 96 97 98 99 100 101 102 103 104 105 106 107 108 109 110 111 112 113 114 115 116 117 118 119 120 121 122 123 124 125 126 127 128 129 130 131 132 133 134 135 136 137 138 139 140 141 142 143 144 145 146 147 148 149 150 151 152 153 154 155 156 157 158 159 160 161 162 163 164 165 166 167 168 169 170 171 172 173 174 175 176 177 178 179 180 181 182 183 184 185 186 187 188 189 190 191 192 193 194 195 196 197 198 199 200 201 202 203 204 205 206 207 208 209 210 211 212 213 214 215 216 217 218 219 220 221 222 223 224 225 226 227 228 229 230 231 232 233 234 235 236 237 238 239 240 241 242 243 244 245 246 247 248 249 250 251 252 253 254 255 256 257 258 259 260 261 262 263 264 265 266 267 268 269 270 271 272 273 274 275 276 277 278 279 280 281 282 283 284 285 286 287 288 289 290 291 292 293 294 295 296 297 298 299 300 301 302 303 304 305 306 307 308 309 310 311 312 313 314 315 316 317 318 319 320 321 322 323 324 325 326 327 328 329 330 331 332 333 334 335 336 337 338 339 340 341 342 343 344 345 346 347 348 349 350 351 352 353 354 355 356 357 358 359 360 361 362 363 364 365 366 367 368 369 370 371 372 373 374 375 376 377 378 379 380 381 382 383 384 385 386 387 388 389 390 391 392 393 394 395 396 397 398 399 400 
Y_COORDINATES 100 double
1 2 3 4 5 6 7 8 9 10 11 12 13 14 15 16 17 18 19 20 21 22 23 24 25 26 27 28 29 30 31 32 33 34 35 36 37 38 39 40 41 42 43 44 45 46 47 48 49 50 51 52 53 54 55 56 57 58 59 60 61 62 63 64 65 66 67 68 69 70 71 72 73 74 75 76 77 78 79 80 81 82 83 84 85 86 87 88 89 90 91 92 93 94 95 96 97 98 99 100 
Z_COORDINATES 1 double
0
POINT_DATA 40000
SCALARS rho double 1
LOOKUP_TABLE default
0.475759 0.475851 0.475989 0.476148 0.476316 0.476488 0.476658 0.476824 0.476986 0.477143 0.477293 0.477438 0.477577 0.47771 0.477837 0.477958 0.478074 0.478184 0.478289 0.478388 0.478482 0.478569 0.478651 0.478727 0.478798 0.478861 0.478919 0.47897 0.479014 0.479051 0.479081 0.479104 0.479119 0.479127 0.479127 0.479119 0.479103 0.479079 0.479047 0.479006 0.478957 0.478899 0.478833 0.478758 0.478675 0.478584 0.478484 0.478376 0.47826 0.478136 0.478004 0.477864 0.477716 0.477561 0.4774 0.477231 0.477055 0.476873 0.476685 0.476491 0.476292 0.476087 0.475877 0.475663 0.475444 0.475221 0.474995 0.474766 0.474533 0.474298 0.474061 0.473822 0.473582 0.473341 0.473099 0.472856 0.472614 0.472373 0.472132 0.471893 0.471655 0.471419 0.471186 0.470956 0.470729 0.470505 0.470286 0.470071 0.46986 0.469655 0.469455 0.46926 0.469071 0.468889 0.468713 0.468544 0.468383 0.468228 0.468081 0.467941 0.46781 0.467686 0.46757 0.467462 0.467363 0.467272 0.467189 0.467114 0.467047 0.466989 0.466938 0.466895 0.46686 0.466833 0.466812 0.466799 0.466794 0.466795 0.466803 0.466817 0.466838 0.466867 0.466902 0.466944 0.466995 0.467054 0.467123 0.467204 0.467299 0.467412 0.467546 0.467709 0.467909 0.468155 0.468463 0.468853 0.469349 0.469987 0.470813 0.471887 0.473292 0.475137 0.477568 0.480778 0.485027 0.490662 0.498142 0.508081 0.521288 0.538828 0.562081 0.592802 0.633138 0.685566 0.752623 0.836323 0.937146 1.05277 1.17717 1.30104 1.41416 1.50872 1.5815 1.63375 1.6693 1.69259 1.70751 1.71693 1.72285 1.72658 1.72894 1.73044 1.73141 1.73205 1.73248 1.73279 1.73301 1.73318 1.73331 1.73343 1.73352 1.73361 1.73369 1.73376 1.73383 1.7339 1.73396 1.73401 1.73406 1.73411 1.73415 1.73419 1.73423 1.73426 1.73429 1.73431 1.73432 1.73434 1.73434 1.73435 1.73434 1.73434 1.73432 1.73431 1.73429 1.73426 1.73423 1.73419 1.73415 1.73411 1.73406 1.73401 1.73396 1.7339 1.73383 1.73376 1.73369 1.73361 1.73352 1.73343 1.73331 1.73318 1.73301 1.73279 1.73248 1.73205 1.73141 1.73044 1.72894 1.72658 1.72285 1.71693 1.70751 1.69259 1.6693 1.63375 1.5815 1.50872 1.41416 1.30104 1.17717 1.05277 0.937145 0.836322 0.752622 0.685564 0.633136 0.592799 0.562078 0.538825 0.521284 0.508077 0.498138 0.490657 0.485023 0.480773 0.477562 0.475132 0.473286 0.47188 0.470805 0.469979 0.46934 0.468843 0.468453 0.468144 0.467897 0.467697 0.467533 0.467397 0.467283 0.467186 0.467104 0.467033 0.466972 0.46692 0.466875 0.466838 0.466808 0.466784 0.466767 0.466756 0.466752 0.466755 0.466765 0.466781 0.466805 0.466836 0.466875 0.466922 0.466976 0.467038 0.467108 0.467186 0.467272 0.467366 0.467468 0.467578 0.467696 0.467821 0.467954 0.468095 0.468243 0.468398 0.468561 0.46873 0.468905 0.469087 0.469274 0.469467 0.469666 0.46987 0.470078 0.470291 0.470508 0.470728 0.470952 0.471179 0.471408 0.47164 0.471874 0.472109 0.472345 0.472582 0.47282 0.473057 0.473295 0.473531 0.473767 0.474001 0.474234 0.474464 0.474692 0.474917 0.475139 0.475357 0.475572 0.475782 0.475987 0.476188 0.476384 0.476574 0.476758 0.476936 0.477108 0.477273 0.477432 0.477583 0.477727 0.477863 0.477992 0.478113 0.478226 0.47833 0.478427 0.478515 0.478595 0.478666 0.478729 0.478783 0.478829 0.478866 0.478895 0.478916 0.478929 0.478933 0.47893 0.478918 0.478899 0.478873 0.478839 0.478798 0.478751 0.478696 0.478635 0.478568 0.478495 0.478415 0.47833 0.478239 0.478142 0.47804 0.477932 0.477819 0.477701 0.477577 0.477448 0.477313 0.477173 0.477026 0.476875 0.476717 0.476555 0.476388 0.476218 0.476046 0.475878 0.47572 0.475583 0.475491 0.466288 0.466361 0.46648 0.466624 0.46678 0.46694 0.467101 0.46726 0.467414 0.467564 0.467709 0.467848 0.467981 0.468109 0.468232 0.468349 0.468461 0.468567 0.468669 0.468764 0.468855 0.468939 0.469018 0.469092 0.469159 0.469221 0.469276 0.469325 0.469368 0.469403 0.469432 0.469454 0.469468 0.469475 0.469475 0.469467 0.469451 0.469427 0.469395 0.469355 0.469307 0.469251 0.469187 0.469114 0.469033 0.468944 0.468847 0.468742 0.468629 0.468508 0.468379 0.468243 0.4681 0.467949 0.467792 0.467628 0.467457 0.46728 0.467098 0.466909 0.466715 0.466516 0.466312 0.466103 0.465891 0.465674 0.465455 0.465231 0.465006 0.464777 0.464547 0.464314 0.464081 0.463846 0.463611 0.463375 0.46314 0.462905 0.462671 0.462438 0.462208 0.461978 0.461752 0.461528 0.461307 0.46109 0.460877 0.460667 0.460463 0.460263 0.460068 0.459879 0.459696 0.459519 0.459348 0.459184 0.459027 0.458877 0.458734 0.458598 0.45847 0.45835 0.458238 0.458133 0.458037 0.457948 0.457868 0.457795 0.45773 0.457674 0.457624 0.457583 0.457549 0.457522 0.457503 0.45749 0.457484 0.457485 0.457493 0.457507 0.457528 0.457555 0.457589 0.45763 0.457679 0.457737 0.457804 0.457882 0.457974 0.458084 0.458214 0.458372 0.458564 0.458803 0.4591 0.459476 0.459955 0.460571 0.461366 0.462402 0.463755 0.465532 0.46787 0.470957 0.475041 0.480454 0.487635 0.49717 0.509831 0.526634 0.548891 0.578273 0.616824 0.666913 0.730986 0.811048 0.907736 1.01914 1.13988 1.26135 1.37376 1.46917 1.54381 1.59825 1.63583 1.66077 1.67692 1.68721 1.69373 1.69786 1.70048 1.70216 1.70324 1.70396 1.70444 1.70478 1.70502 1.70521 1.70535 1.70548 1.70558 1.70567 1.70575 1.70583 1.7059 1.70596 1.70602 1.70608 1.70613 1.70618 1.70623 1.70627 1.7063 1.70633 1.70636 1.70638 1.7064 1.70641 1.70642 1.70642 1.70642 1.70641 1.7064 1.70638 1.70636 1.70633 1.7063 1.70627 1.70623 1.70618 1.70613 1.70608 1.70602 1.70596 1.7059 1.70583 1.70575 1.70567 1.70558 1.70548 1.70535 1.70521 1.70502 1.70478 1.70444 1.70396 1.70324 1.70216 1.70048 1.69786 1.69373 1.68721 1.67692 1.66078 1.63583 1.59825 1.54381 1.46917 1.37376 1.26135 1.13988 1.01914 0.907735 0.811047 0.730984 0.666911 0.616822 0.57827 0.548888 0.526631 0.509828 0.497167 0.487631 0.48045 0.475037 0.470952 0.467864 0.465526 0.463749 0.462395 0.461359 0.460563 0.459947 0.459467 0.45909 0.458792 0.458552 0.458359 0.4582 0.458069 0.457958 0.457865 0.457785 0.457716 0.457657 0.457607 0.457563 0.457527 0.457498 0.457475 0.457458 0.457448 0.457444 0.457446 0.457456 0.457472 0.457495 0.457525 0.457563 0.457608 0.45766 0.457721 0.457789 0.457864 0.457948 0.458039 0.458138 0.458244 0.458359 0.458481 0.45861 0.458747 0.458891 0.459042 0.459199 0.459363 0.459534 0.45971 0.459893 0.46008 0.460273 0.460471 0.460674 0.46088 0.461091 0.461305 0.461523 0.461744 0.461967 0.462192 0.462419 0.462648 0.462878 0.463108 0.46334 0.46357 0.463801 0.464031 0.464261 0.464488 0.464714 0.464938 0.46516 0.465378 0.465594 0.465806 0.466015 0.466219 0.466419 0.466614 0.466804 0.466989 0.467168 0.467341 0.467509 0.467669 0.467823 0.46797 0.46811 0.468243 0.468368 0.468486 0.468596 0.468698 0.468792 0.468877 0.468955 0.469024 0.469086 0.469139 0.469184 0.46922 0.469249 0.469269 0.469282 0.469286 0.469284 0.469273 0.469255 0.46923 0.469197 0.469158 0.469112 0.46906 0.469001 0.468936 0.468865 0.468788 0.468706 0.468618 0.468525 0.468426 0.468323 0.468213 0.468099 0.46798 0.467855 0.467725 0.46759 0.467449 0.467303 0.467152 0.466997 0.466838 0.466677 0.466517 0.466361 0.466218 0.4661 0.466027 0.459201 0.459257 0.459355 0.459479 0.459618 0.459764 0.459912 0.46006 0.460205 0.460347 0.460484 0.460616 0.460743 0.460866 0.460983 0.461095 0.461202 0.461304 0.461401 0.461493 0.461579 0.46166 0.461736 0.461806 0.461871 0.46193 0.461983 0.462029 0.46207 0.462103 0.462131 0.462151 0.462164 0.46217 0.462169 0.462161 0.462145 0.462121 0.46209 0.46205 0.462003 0.461948 0.461885 0.461814 0.461735 0.461648 0.461553 0.461451 0.461341 0.461223 0.461098 0.460966 0.460827 0.46068 0.460527 0.460367 0.460202 0.46003 0.459852 0.459669 0.45948 0.459287 0.459089 0.458886 0.45868 0.458469 0.458255 0.458038 0.457819 0.457597 0.457373 0.457147 0.45692 0.456692 0.456464 0.456234 0.456006 0.455777 0.45555 0.455324 0.455099 0.454877 0.454657 0.454439 0.454225 0.454013 0.453806 0.453603 0.453404 0.45321 0.453021 0.452837 0.45266 0.452488 0.452322 0.452162 0.45201 0.451864 0.451725 0.451594 0.45147 0.451353 0.451244 0.451143 0.45105 0.450964 0.450886 0.450815 0.450753 0.450698 0.45065 0.45061 0.450577 0.450551 0.450532 0.45052 0.450514 0.450515 0.450523 0.450537 0.450556 0.450583 0.450616 0.450656 0.450703 0.450758 0.450823 0.450899 0.450987 0.451093 0.451218 0.45137 0.451555 0.451784 0.452069 0.452429 0.452888 0.453477 0.454237 0.455225 0.456516 0.458208 0.460434 0.46337 0.467249 0.472386 0.479193 0.488219 0.50019 0.516054 0.537037 0.564701 0.600957 0.648035 0.708282 0.78372 0.875247 0.98157 1.09826 1.21772 1.33071 1.42904 1.50802 1.56713 1.6089 1.63721 1.65585 1.6679 1.67563 1.68056 1.68372 1.68576 1.68708 1.68795 1.68854 1.68895 1.68924 1.68945 1.68962 1.68976 1.68987 1.68997 1.69006 1.69014 1.69021 1.69028 1.69035 1.69041 1.69046 1.69051 1.69056 1.6906 1.69063 1.69067 1.69069 1.69072 1.69073 1.69075 1.69075 1.69076 1.69075 1.69075 1.69073 1.69072 1.69069 1.69067 1.69063 1.6906 1.69056 1.69051 1.69046 1.69041 1.69035 1.69028 1.69021 1.69014 1.69006 1.68997 1.68987 1.68976 1.68962 1.68945 1.68924 1.68895 1.68854 1.68795 1.68708 1.68576 1.68372 1.68056 1.67563 1.6679 1.65585 1.63721 1.6089 1.56713 1.50802 1.42904 1.33071 1.21772 1.09826 0.98157 0.875246 0.783719 0.70828 0.648033 0.600955 0.564698 0.537035 0.516051 0.500187 0.488216 0.479189 0.472382 0.467245 0.463365 0.460428 0.458202 0.456509 0.455219 0.45423 0.453469 0.452879 0.45242 0.452059 0.451773 0.451543 0.451358 0.451205 0.451078 0.450972 0.450881 0.450804 0.450738 0.450681 0.450632 0.45059 0.450555 0.450527 0.450505 0.450488 0.450478 0.450474 0.450477 0.450486 0.450501 0.450524 0.450553 0.450589 0.450633 0.450684 0.450742 0.450808 0.450881 0.450962 0.45105 0.451146 0.45125 0.451361 0.451479 0.451604 0.451737 0.451877 0.452023 0.452176 0.452335 0.452501 0.452672 0.452849 0.453031 0.453219 0.453411 0.453608 0.453809 0.454014 0.454222 0.454434 0.454648 0.454865 0.455084 0.455305 0.455527 0.45575 0.455974 0.456199 0.456424 0.456648 0.456872 0.457095 0.457316 0.457536 0.457753 0.457969 0.458181 0.458391 0.458597 0.4588 0.458998 0.459193 0.459382 0.459567 0.459747 0.459921 0.460089 0.460252 0.460408 0.460558 0.460701 0.460837 0.460966 0.461088 0.461202 0.46131 0.461409 0.4615 0.461584 0.46166 0.461728 0.461788 0.461839 0.461884 0.46192 0.461948 0.461968 0.461981 0.461986 0.461984 0.461975 0.461958 0.461934 0.461904 0.461866 0.461823 0.461773 0.461717 0.461654 0.461587 0.461513 0.461434 0.46135 0.46126 0.461166 0.461066 0.460961 0.460852 0.460737 0.460618 0.460494 0.460365 0.460231 0.460093 0.45995 0.459804 0.459656 0.459507 0.459361 0.459222 0.459099 0.459001 0.458945 0.453904 0.453948 0.454027 0.454132 0.454253 0.454383 0.454517 0.454653 0.454787 0.454919 0.455048 0.455172 0.455293 0.455409 0.45552 0.455627 0.455729 0.455826 0.455918 0.456006 0.456088 0.456165 0.456238 0.456305 0.456366 0.456422 0.456472 0.456516 0.456554 0.456585 0.456611 0.456629 0.456641 0.456646 0.456644 0.456635 0.456619 0.456594 0.456563 0.456524 0.456478 0.456423 0.456362 0.456292 0.456215 0.45613 0.456037 0.455937 0.45583 0.455715 0.455594 0.455465 0.455329 0.455186 0.455038 0.454882 0.454721 0.454553 0.454381 0.454202 0.454019 0.453831 0.453638 0.453441 0.45324 0.453035 0.452828 0.452616 0.452403 0.452187 0.451969 0.451749 0.451529 0.451306 0.451084 0.450861 0.450639 0.450417 0.450196 0.449975 0.449757 0.44954 0.449326 0.449114 0.448906 0.448701 0.448499 0.448301 0.448108 0.447919 0.447736 0.447557 0.447385 0.447217 0.447057 0.446902 0.446754 0.446612 0.446477 0.44635 0.446229 0.446116 0.446011 0.445912 0.445822 0.445738 0.445663 0.445595 0.445534 0.44548 0.445434 0.445395 0.445363 0.445338 0.44532 0.445308 0.445303 0.445304 0.445311 0.445324 0.445344 0.445369 0.445401 0.445439 0.445485 0.445538 0.4456 0.445673 0.445758 0.445859 0.44598 0.446125 0.446302 0.44652 0.446792 0.447135 0.447571 0.448129 0.44885 0.449786 0.451006 0.452604 0.454703 0.457468 0.461116 0.46594 0.472321 0.48077 0.491954 0.506749 0.526281 0.551986 0.585629 0.629284 0.685184 0.755369 0.841023 0.941538 1.05357 1.1707 1.28445 1.38648 1.47107 1.53638 1.58386 1.61683 1.63898 1.65356 1.66303 1.66915 1.6731 1.67566 1.67733 1.67844 1.67918 1.67969 1.68005 1.68031 1.68051 1.68067 1.6808 1.68091 1.68101 1.6811 1.68117 1.68125 1.68131 1.68138 1.68143 1.68149 1.68153 1.68158 1.68161 1.68165 1.68167 1.6817 1.68172 1.68173 1.68174 1.68174 1.68174 1.68173 1.68172 1.6817 1.68167 1.68165 1.68161 1.68158 1.68153 1.68149 1.68143 1.68138 1.68131 1.68125 1.68117 1.6811 1.68101 1.68091 1.6808 1.68067 1.68051 1.68031 1.68005 1.67969 1.67918 1.67844 1.67733 1.67566 1.6731 1.66915 1.66303 1.65356 1.63898 1.61683 1.58386 1.53638 1.47107 1.38648 1.28445 1.1707 1.05357 0.941537 0.841022 0.755368 0.685182 0.629282 0.585627 0.551984 0.526278 0.506746 0.491951 0.480767 0.472318 0.465936 0.461112 0.457463 0.454698 0.452598 0.451 0.449779 0.448843 0.448122 0.447562 0.447126 0.446782 0.44651 0.44629 0.446113 0.445966 0.445845 0.445743 0.445656 0.445582 0.445518 0.445463 0.445416 0.445376 0.445342 0.445314 0.445293 0.445277 0.445267 0.445263 0.445266 0.445274 0.445289 0.445311 0.445339 0.445374 0.445416 0.445466 0.445522 0.445586 0.445657 0.445735 0.445821 0.445914 0.446014 0.446122 0.446236 0.446358 0.446487 0.446622 0.446764 0.446913 0.447068 0.447229 0.447395 0.447567 0.447744 0.447927 0.448114 0.448305 0.4485 0.4487 0.448902 0.449108 0.449316 0.449528 0.44974 0.449956 0.450172 0.450389 0.450607 0.450826 0.451045 0.451263 0.451481 0.451698 0.451913 0.452127 0.452339 0.452548 0.452755 0.452959 0.45316 0.453357 0.45355 0.453739 0.453924 0.454104 0.454278 0.454448 0.454612 0.45477 0.454922 0.455068 0.455207 0.45534 0.455465 0.455584 0.455696 0.4558 0.455897 0.455987 0.456068 0.456143 0.456209 0.456268 0.456319 0.456363 0.456398 0.456427 0.456447 0.456461 0.456467 0.456466 0.456457 0.456442 0.45642 0.456392 0.456356 0.456315 0.456268 0.456215 0.456155 0.456091 0.456021 0.455946 0.455865 0.45578 0.455689 0.455594 0.455494 0.45539 0.455281 0.455168 0.45505 0.454928 0.454801 0.454672 0.454539 0.454403 0.454267 0.454132 0.454002 0.453881 0.453776 0.453697 0.453653 0.449952 0.449987 0.450051 0.450139 0.450243 0.450358 0.450478 0.450601 0.450724 0.450846 0.450966 0.451082 0.451195 0.451304 0.451409 0.45151 0.451607 0.451699 0.451787 0.451869 0.451948 0.452021 0.45209 0.452153 0.452211 0.452263 0.452311 0.452352 0.452387 0.452417 0.45244 0.452456 0.452467 0.45247 0.452467 0.452457 0.45244 0.452415 0.452384 0.452345 0.452299 0.452245 0.452185 0.452116 0.45204 0.451957 0.451867 0.451769 0.451664 0.451552 0.451433 0.451307 0.451175 0.451036 0.450891 0.450739 0.450582 0.450419 0.45025 0.450076 0.449898 0.449714 0.449527 0.449335 0.449139 0.448939 0.448737 0.448531 0.448323 0.448113 0.447901 0.447686 0.447471 0.447255 0.447038 0.446821 0.446604 0.446388 0.446172 0.445958 0.445745 0.445534 0.445325 0.445119 0.444916 0.444716 0.44452 0.444327 0.444139 0.443955 0.443777 0.443603 0.443435 0.443272 0.443115 0.442965 0.442821 0.442683 0.442552 0.442428 0.442311 0.442201 0.442099 0.442003 0.441915 0.441834 0.441761 0.441695 0.441636 0.441584 0.44154 0.441502 0.441471 0.441446 0.441429 0.441417 0.441412 0.441413 0.44142 0.441432 0.441451 0.441475 0.441506 0.441543 0.441586 0.441638 0.441697 0.441767 0.441849 0.441946 0.44206 0.442199 0.442367 0.442574 0.442832 0.443156 0.443568 0.444095 0.444773 0.445652 0.446797 0.448294 0.450257 0.452839 0.45624 0.460727 0.466653 0.474483 0.484825 0.498476 0.51646 0.540081 0.570946 0.610967 0.662249 0.726827 0.806138 0.900231 1.00685 1.12088 1.2348 1.3404 1.43105 1.50347 1.5578 1.59658 1.62324 1.64111 1.65289 1.6606 1.66563 1.66891 1.67106 1.67248 1.67344 1.67409 1.67455 1.67488 1.67512 1.67531 1.67546 1.67559 1.6757 1.67579 1.67588 1.67596 1.67603 1.67609 1.67615 1.6762 1.67625 1.6763 1.67634 1.67637 1.6764 1.67642 1.67644 1.67645 1.67646 1.67647 1.67646 1.67645 1.67644 1.67642 1.6764 1.67637 1.67634 1.6763 1.67625 1.6762 1.67615 1.67609 1.67603 1.67596 1.67588 1.67579 1.6757 1.67559 1.67546 1.67531 1.67512 1.67488 1.67455 1.67409 1.67344 1.67248 1.67106 1.66891 1.66563 1.6606 1.65289 1.64111 1.62324 1.59658 1.5578 1.50347 1.43105 1.3404 1.2348 1.12088 1.00685 0.90023 0.806137 0.726826 0.662247 0.610965 0.570944 0.540078 0.516458 0.498473 0.484822 0.474479 0.466649 0.460723 0.456235 0.452834 0.450252 0.448289 0.446791 0.445646 0.444766 0.444087 0.44356 0.443148 0.442822 0.442564 0.442355 0.442186 0.442047 0.441931 0.441833 0.44175 0.441679 0.441618 0.441565 0.441519 0.441481 0.441448 0.441421 0.441401 0.441385 0.441376 0.441372 0.441375 0.441383 0.441398 0.441418 0.441446 0.44148 0.441521 0.441568 0.441623 0.441685 0.441753 0.441829 0.441912 0.442003 0.4421 0.442205 0.442316 0.442434 0.442559 0.442691 0.442829 0.442974 0.443124 0.443281 0.443443 0.44361 0.443783 0.44396 0.444142 0.444329 0.444519 0.444713 0.44491 0.445111 0.445314 0.44552 0.445727 0.445937 0.446148 0.44636 0.446572 0.446786 0.446999 0.447212 0.447424 0.447635 0.447845 0.448054 0.44826 0.448464 0.448666 0.448865 0.44906 0.449253 0.449441 0.449625 0.449805 0.44998 0.45015 0.450316 0.450475 0.45063 0.450778 0.45092 0.451056 0.451186 0.451308 0.451424 0.451533 0.451635 0.45173 0.451818 0.451898 0.451971 0.452036 0.452095 0.452145 0.452188 0.452224 0.452253 0.452274 0.452288 0.452295 0.452295 0.452288 0.452275 0.452254 0.452228 0.452195 0.452157 0.452112 0.452062 0.452006 0.451945 0.451878 0.451807 0.45173 0.451649 0.451563 0.451473 0.451378 0.451279 0.451176 0.451069 0.450958 0.450843 0.450725 0.450604 0.450481 0.450357 0.450233 0.450112 0.449998 0.449893 0.449805 0.44974 0.449706 0.44701 0.447038 0.447091 0.447165 0.447254 0.447354 0.447461 0.447571 0.447683 0.447795 0.447905 0.448014 0.448119 0.448221 0.44832 0.448415 0.448506 0.448593 0.448676 0.448754 0.448828 0.448897 0.448962 0.449021 0.449076 0.449125 0.449169 0.449208 0.449241 0.449267 0.449289 0.449303 0.449312 0.449314 0.449309 0.449298 0.44928 0.449255 0.449223 0.449184 0.449139 0.449085 0.449025 0.448957 0.448883 0.448801 0.448712 0.448616 0.448514 0.448404 0.448287 0.448164 0.448035 0.447899 0.447757 0.447609 0.447456 0.447296 0.447132 0.446962 0.446788 0.446609 0.446426 0.446238 0.446047 0.445852 0.445655 0.445454 0.445251 0.445045 0.444838 0.444629 0.444419 0.444208 0.443997 0.443785 0.443573 0.443362 0.443151 0.442942 0.442734 0.442528 0.442325 0.442123 0.441925 0.44173 0.441538 0.44135 0.441167 0.440988 0.440814 0.440644 0.44048 0.440322 0.440169 0.440022 0.439882 0.439748 0.43962 0.4395 0.439386 0.439279 0.439179 0.439086 0.439001 0.438922 0.438851 0.438786 0.438729 0.438679 0.438635 0.438599 0.438569 0.438545 0.438528 0.438516 0.438511 0.438512 0.438518 0.43853 0.438548 0.438572 0.438601 0.438636 0.438678 0.438727 0.438784 0.438851 0.438929 0.439021 0.43913 0.439262 0.439421 0.439617 0.43986 0.440165 0.440551 0.441045 0.441679 0.4425 0.443567 0.444959 0.446781 0.449173 0.452317 0.456458 0.461914 0.469106 0.478584 0.491064 0.507466 0.528963 0.557006 0.593336 0.639918 0.698747 0.771452 0.85864 0.959068 1.06895 1.18195 1.29029 1.38676 1.4667 1.52875 1.57439 1.60656 1.62858 1.64334 1.65311 1.65955 1.66379 1.66659 1.66845 1.66969 1.67054 1.67113 1.67155 1.67185 1.67208 1.67226 1.67241 1.67253 1.67264 1.67273 1.67281 1.67289 1.67296 1.67302 1.67307 1.67312 1.67317 1.67321 1.67324 1.67327 1.6733 1.67331 1.67333 1.67334 1.67334 1.67334 1.67333 1.67331 1.6733 1.67327 1.67324 1.67321 1.67317 1.67312 1.67307 1.67302 1.67296 1.67289 1.67281 1.67273 1.67264 1.67253 1.67241 1.67226 1.67208 1.67185 1.67155 1.67113 1.67054 1.66969 1.66845 1.66659 1.66379 1.65955 1.65311 1.64334 1.62858 1.60656 1.57439 1.52875 1.4667 1.38676 1.29029 1.18195 1.06895 0.959068 0.85864 0.771451 0.698746 0.639916 0.593334 0.557004 0.528961 0.507464 0.491061 0.47858 0.469102 0.46191 0.456454 0.452313 0.449168 0.446776 0.444954 0.443561 0.442494 0.441672 0.441037 0.440543 0.440156 0.43985 0.439606 0.439409 0.439249 0.439117 0.439006 0.438913 0.438834 0.438766 0.438707 0.438656 0.438613 0.438576 0.438544 0.438519 0.438499 0.438484 0.438475 0.438471 0.438474 0.438482 0.438496 0.438516 0.438543 0.438576 0.438615 0.438662 0.438715 0.438775 0.438841 0.438915 0.438996 0.439084 0.439178 0.43928 0.439388 0.439503 0.439625 0.439754 0.439888 0.440029 0.440175 0.440328 0.440486 0.440649 0.440817 0.440991 0.441168 0.44135 0.441536 0.441725 0.441918 0.442114 0.442312 0.442513 0.442715 0.44292 0.443126 0.443333 0.443541 0.443749 0.443957 0.444165 0.444372 0.444579 0.444783 0.444987 0.445189 0.445388 0.445585 0.445779 0.44597 0.446158 0.446341 0.446521 0.446697 0.446868 0.447034 0.447196 0.447352 0.447502 0.447647 0.447786 0.447919 0.448046 0.448166 0.448279 0.448386 0.448486 0.448579 0.448666 0.448744 0.448816 0.448881 0.448938 0.448988 0.449032 0.449068 0.449097 0.449118 0.449133 0.449141 0.449143 0.449137 0.449126 0.449108 0.449084 0.449053 0.449017 0.448976 0.448928 0.448876 0.448818 0.448755 0.448688 0.448615 0.448539 0.448457 0.448372 0.448283 0.448189 0.448092 0.447991 0.447887 0.44778 0.44767 0.447558 0.447445 0.447332 0.447221 0.447113 0.447013 0.446923 0.446849 0.446796 0.446767 0.444825 0.444848 0.444893 0.444955 0.445032 0.445119 0.445213 0.445312 0.445413 0.445515 0.445616 0.445716 0.445814 0.445909 0.446001 0.44609 0.446176 0.446257 0.446335 0.446409 0.446478 0.446543 0.446604 0.44666 0.446711 0.446757 0.446798 0.446834 0.446864 0.446888 0.446907 0.44692 0.446926 0.446927 0.446921 0.446908 0.44689 0.446864 0.446832 0.446792 0.446746 0.446693 0.446634 0.446567 0.446493 0.446412 0.446325 0.44623 0.44613 0.446022 0.445908 0.445787 0.445661 0.445527 0.445389 0.445244 0.445094 0.444938 0.444777 0.444611 0.444441 0.444265 0.444086 0.443903 0.443716 0.443526 0.443333 0.443136 0.442938 0.442737 0.442534 0.44233 0.442124 0.441918 0.441711 0.441504 0.441297 0.44109 0.440884 0.44068 0.440477 0.440275 0.440076 0.439879 0.439685 0.439494 0.439307 0.439124 0.438944 0.438769 0.438599 0.438433 0.438273 0.438119 0.43797 0.437826 0.437689 0.437558 0.437434 0.437316 0.437206 0.437101 0.437004 0.436913 0.43683 0.436753 0.436684 0.436621 0.436566 0.436516 0.436474 0.436438 0.436409 0.436386 0.436369 0.436358 0.436353 0.436353 0.436359 0.436371 0.436388 0.43641 0.436438 0.436472 0.436512 0.436559 0.436613 0.436677 0.436751 0.436838 0.436942 0.437066 0.437216 0.4374 0.437628 0.437914 0.438275 0.438735 0.439324 0.440086 0.441073 0.442359 0.444039 0.446239 0.449125 0.452917 0.457901 0.464455 0.473071 0.484387 0.499223 0.518623 0.543885 0.576582 0.618523 0.67163 0.737641 0.817605 0.911152 1.01576 1.12642 1.23615 1.33757 1.42489 1.4952 1.54863 1.58737 1.61448 1.633 1.64544 1.65373 1.65924 1.66289 1.66533 1.66697 1.66808 1.66885 1.66939 1.66978 1.67007 1.67029 1.67047 1.67061 1.67073 1.67083 1.67092 1.671 1.67107 1.67113 1.67119 1.67124 1.67129 1.67133 1.67137 1.67139 1.67142 1.67144 1.67145 1.67146 1.67146 1.67146 1.67145 1.67144 1.67142 1.67139 1.67137 1.67133 1.67129 1.67124 1.67119 1.67113 1.67107 1.671 1.67092 1.67083 1.67073 1.67061 1.67047 1.67029 1.67007 1.66978 1.66939 1.66885 1.66808 1.66697 1.66533 1.66289 1.65924 1.65373 1.64544 1.633 1.61448 1.58737 1.54863 1.4952 1.42489 1.33757 1.23615 1.12642 1.01576 0.911152 0.817604 0.73764 0.671629 0.618522 0.57658 0.543883 0.518621 0.499221 0.484384 0.473068 0.464452 0.457897 0.452913 0.449121 0.446234 0.444034 0.442354 0.441067 0.440079 0.439317 0.438727 0.438266 0.437905 0.437618 0.437389 0.437204 0.437053 0.436928 0.436823 0.436735 0.436659 0.436594 0.436538 0.43649 0.436448 0.436412 0.436382 0.436358 0.436338 0.436325 0.436316 0.436313 0.436315 0.436323 0.436337 0.436356 0.436382 0.436414 0.436453 0.436498 0.436549 0.436608 0.436673 0.436745 0.436823 0.436909 0.437001 0.4371 0.437205 0.437318 0.437436 0.437562 0.437693 0.43783 0.437973 0.438122 0.438277 0.438436 0.438601 0.43877 0.438943 0.439121 0.439303 0.439488 0.439676 0.439868 0.440062 0.440258 0.440456 0.440657 0.440858 0.441061 0.441263 0.441467 0.441671 0.441874 0.442077 0.442279 0.442479 0.442679 0.442876 0.443071 0.443263 0.443453 0.44364 0.443824 0.444003 0.444179 0.444351 0.444519 0.444681 0.444839 0.444992 0.445139 0.445281 0.445417 0.445547 0.445671 0.445789 0.445901 0.446005 0.446104 0.446195 0.44628 0.446358 0.446429 0.446493 0.44655 0.4466 0.446643 0.446679 0.446709 0.446732 0.446748 0.446757 0.44676 0.446756 0.446747 0.44673 0.446709 0.446681 0.446648 0.446609 0.446565 0.446516 0.446462 0.446402 0.446339 0.446271 0.446199 0.446122 0.446042 0.445957 0.445869 0.445778 0.445684 0.445586 0.445487 0.445385 0.445282 0.445179 0.445077 0.444977 0.444882 0.444794 0.444717 0.444654 0.444609 0.444586 0.443209 0.443228 0.443266 0.443319 0.443385 0.443461 0.443544 0.443632 0.443723 0.443815 0.443908 0.444 0.44409 0.444178 0.444264 0.444347 0.444427 0.444503 0.444576 0.444645 0.44471 0.444771 0.444828 0.44488 0.444928 0.44497 0.445008 0.44504 0.445068 0.44509 0.445106 0.445117 0.445122 0.44512 0.445113 0.445099 0.445079 0.445052 0.44502 0.44498 0.444934 0.444881 0.444821 0.444755 0.444682 0.444602 0.444516 0.444423 0.444324 0.444218 0.444106 0.443987 0.443863 0.443732 0.443596 0.443454 0.443307 0.443154 0.442997 0.442834 0.442667 0.442496 0.44232 0.442141 0.441958 0.441771 0.441582 0.44139 0.441196 0.440999 0.4408 0.4406 0.440399 0.440197 0.439994 0.439791 0.439588 0.439386 0.439184 0.438984 0.438785 0.438587 0.438393 0.4382 0.43801 0.437823 0.43764 0.43746 0.437285 0.437113 0.436947 0.436785 0.436628 0.436476 0.436331 0.436191 0.436057 0.435929 0.435808 0.435692 0.435584 0.435482 0.435387 0.435299 0.435217 0.435142 0.435075 0.435013 0.434959 0.434911 0.43487 0.434835 0.434806 0.434783 0.434766 0.434755 0.43475 0.43475 0.434756 0.434767 0.434783 0.434804 0.434831 0.434863 0.434901 0.434946 0.434998 0.435058 0.435128 0.435211 0.435308 0.435425 0.435566 0.435739 0.435951 0.436218 0.436553 0.436979 0.437524 0.438226 0.439135 0.440316 0.441854 0.443864 0.446495 0.449944 0.454465 0.460396 0.468171 0.478357 0.491677 0.509054 0.53164 0.560841 0.598304 0.645844 0.705232 0.777823 0.863952 0.962233 1.069 1.1784 1.28334 1.37732 1.45599 1.51794 1.56427 1.59754 1.62074 1.63659 1.64729 1.65446 1.65926 1.66248 1.66465 1.66613 1.66715 1.66786 1.66836 1.66873 1.66901 1.66922 1.66939 1.66953 1.66965 1.66975 1.66983 1.66991 1.66998 1.67004 1.67009 1.67014 1.67018 1.67022 1.67025 1.67027 1.67029 1.67031 1.67031 1.67032 1.67031 1.67031 1.67029 1.67027 1.67025 1.67022 1.67018 1.67014 1.67009 1.67004 1.66998 1.66991 1.66983 1.66975 1.66965 1.66953 1.66939 1.66922 1.66901 1.66873 1.66836 1.66786 1.66715 1.66613 1.66465 1.66248 1.65926 1.65446 1.64729 1.63659 1.62074 1.59754 1.56427 1.51794 1.45599 1.37732 1.28335 1.1784 1.069 0.962233 0.863952 0.777822 0.705231 0.645842 0.598303 0.560839 0.531638 0.509052 0.491674 0.478354 0.468168 0.460392 0.454461 0.44994 0.446491 0.44386 0.441849 0.44031 0.439129 0.43822 0.437517 0.436971 0.436544 0.436208 0.435941 0.435728 0.435554 0.435412 0.435295 0.435196 0.435112 0.43504 0.434979 0.434925 0.434879 0.434839 0.434805 0.434776 0.434753 0.434734 0.434721 0.434713 0.43471 0.434712 0.43472 0.434734 0.434753 0.434778 0.43481 0.434847 0.434891 0.434941 0.434998 0.435061 0.435132 0.435208 0.435292 0.435382 0.435478 0.435581 0.435691 0.435807 0.43593 0.436058 0.436192 0.436332 0.436478 0.436629 0.436785 0.436946 0.437111 0.437281 0.437455 0.437633 0.437814 0.437999 0.438187 0.438376 0.438569 0.438763 0.438959 0.439157 0.439355 0.439554 0.439754 0.439953 0.440152 0.440351 0.440549 0.440745 0.440941 0.441134 0.441325 0.441513 0.4417 0.441882 0.442062 0.442238 0.442411 0.442579 0.442743 0.442902 0.443057 0.443207 0.443352 0.44349 0.443624 0.443752 0.443874 0.443989 0.444099 0.444202 0.444299 0.444389 0.444473 0.44455 0.44462 0.444684 0.444741 0.444791 0.444834 0.444871 0.444901 0.444925 0.444942 0.444952 0.444957 0.444955 0.444947 0.444933 0.444914 0.444889 0.444859 0.444823 0.444782 0.444736 0.444686 0.44463 0.444571 0.444507 0.444439 0.444367 0.444292 0.444212 0.44413 0.444045 0.443957 0.443867 0.443774 0.443681 0.443586 0.443493 0.4434 0.443311 0.443227 0.44315 0.443083 0.44303 0.442992 0.442973 0.442018 0.442035 0.442066 0.442112 0.442169 0.442235 0.442309 0.442387 0.442469 0.442552 0.442637 0.442721 0.442804 0.442886 0.442965 0.443042 0.443116 0.443187 0.443255 0.443