# vtk DataFile Version 3.0
Immiscible displacement
ASCII
DATASET RECTILINEAR_GRID
DIMENSIONS 200 200 1
X_COORDINATES 200 double
1 2 3 4 5 6 7 8 9 10 11 12 13 14 15 16 17 18 19 20 21 22 23 24 25 26 27 28 29 30 31 32 33 34 35 36 37 38 39 40 41 42 43 44 45 46 47 48 49 50 51 52 53 54 55 56 57 58 59 60 61 62 63 64 65 66 67 68 69 70 71 72 73 74 75 76 77 78 79 80 81 82 83 84 85 86 87 88 89 90 91 92 93 94 95 96 97 98 99 100 101 102 103 104 105 106 107 108 109 110 111 112 113 114 115 116 117 118 119 120 121 122 123 124 125 126 127 128 129 130 131 132 133 134 135 136 137 138 139 140 141 142 143 144 145 146 147 148 149 150 151 152 153 154 155 156 157 158 159 160 161 162 163 164 165 166 167 168 169 170 171 172 173 174 175 176 177 178 179 180 181 182 183 184 185 186 187 188 189 190 191 192 193 194 195 196 197 198 199 200 
Y_COORDINATES 200 double
1 2 3 4 5 6 7 8 9 10 11 12 13 14 15 16 17 18 19 20 21 22 23 24 25 26 27 28 29 30 31 32 33 34 35 36 37 38 39 40 41 42 43 44 45 46 47 48 49 50 51 52 53 54 55 56 57 58 59 60 61 62 63 64 65 66 67 68 69 70 71 72 73 74 75 76 77 78 79 80 81 82 83 84 85 86 87 88 89 90 91 92 93 94 95 96 97 98 99 100 101 102 103 104 105 106 107 108 109 110 111 112 113 114 115 116 117 118 119 120 121 122 123 124 125 126 127 128 129 130 131 132 133 134 135 136 137 138 139 140 141 142 143 144 145 146 147 148 149 150 151 152 153 154 155 156 157 158 159 160 161 162 163 164 165 166 167 168 169 170 171 172 173 174 175 176 177 178 179 180 181 182 183 184 185 186 187 188 189 190 191 192 193 194 195 196 197 198 199 200 
Z_COORDINATES 1 double
0
POINT_DATA 40000
SCALARS rho double 1
LOOKUP_TABLE default
0.455107 0.455186 0.455229 0.455175 0.454985 0.454646 0.454149 0.453503 0.452716 0.451807 0.450793 0.4497 0.448547 0.447364 0.446172 0.445003 0.44388 0.442838 0.441905 0.441123 0.440532 0.440189 0.440154 0.440517 0.441379 0.442887 0.445221 0.448634 0.453448 0.460106 0.46918 0.481443 0.497894 0.519847 0.548953 0.587257 0.637102 0.700932 0.780714 0.877064 0.988012 1.10814 1.2288 1.3402 1.43443 1.50779 1.56088 1.59711 1.62073 1.63559 1.64465 1.64999 1.65298 1.65449 1.65506 1.65504 1.65461 1.65392 1.65302 1.65197 1.65077 1.64946 1.64801 1.64644 1.64473 1.6429 1.6409 1.63877 1.63645 1.63398 1.6313 1.62845 1.62537 1.6221 1.6186 1.61488 1.61092 1.60676 1.60235 1.59774 1.59292 1.58793 1.58277 1.5775 1.57212 1.56671 1.56129 1.55593 1.55068 1.54562 1.54078 1.53626 1.53209 1.52835 1.52508 1.52235 1.52016 1.51859 1.51763 1.51731 1.51763 1.51859 1.52016 1.52235 1.52508 1.52835 1.53209 1.53626 1.54078 1.54562 1.55068 1.55593 1.56129 1.56671 1.57212 1.5775 1.58277 1.58793 1.59292 1.59774 1.60235 1.60676 1.61092 1.61488 1.6186 1.6221 1.62537 1.62845 1.6313 1.63398 1.63645 1.63877 1.6409 1.6429 1.64473 1.64644 1.64801 1.64946 1.65077 1.65197 1.65302 1.65392 1.65461 1.65503 1.65505 1.65448 1.65297 1.64999 1.64464 1.63558 1.62072 1.59711 1.56088 1.50779 1.43445 1.34023 1.22884 1.10819 0.988066 0.877119 0.780766 0.700976 0.637136 0.587276 0.548952 0.519821 0.497837 0.481348 0.469041 0.459915 0.453197 0.448314 0.444824 0.442405 0.440805 0.439845 0.439379 0.439306 0.43954 0.440022 0.440697 0.441527 0.442474 0.443511 0.444607 0.44574 0.446881 0.448011 0.449101 0.450134 0.451082 0.451928 0.45265 0.453236 0.453671 0.453954 0.454087 0.454091 0.454002 0.453893 0.455292 0.45533 0.455333 0.455246 0.455031 0.454674 0.454164 0.45351 0.452717 0.451807 0.450791 0.4497 0.448549 0.447369 0.446179 0.445013 0.443891 0.442852 0.441919 0.441139 0.440546 0.440202 0.440161 0.440519 0.441371 0.442869 0.445186 0.44858 0.453364 0.459986 0.469008 0.481205 0.497566 0.519403 0.548352 0.586456 0.636046 0.69957 0.779005 0.875009 0.985668 1.10565 1.22636 1.33801 1.43262 1.50641 1.55988 1.59643 1.62026 1.63527 1.64442 1.64983 1.65284 1.65438 1.65495 1.65494 1.65451 1.65383 1.65292 1.65188 1.65067 1.64936 1.64791 1.64635 1.64463 1.64281 1.64082 1.6387 1.63639 1.63393 1.63127 1.62844 1.62538 1.62215 1.61867 1.61499 1.61107 1.60696 1.6026 1.59805 1.59329 1.58837 1.58327 1.57807 1.57276 1.56743 1.56208 1.55681 1.55162 1.54664 1.54186 1.53741 1.53329 1.5296 1.52637 1.52367 1.52151 1.51996 1.51901 1.5187 1.51901 1.51996 1.52151 1.52367 1.52637 1.5296 1.53329 1.53741 1.54186 1.54664 1.55162 1.55681 1.56208 1.56743 1.57276 1.57807 1.58327 1.58837 1.59329 1.59805 1.6026 1.60696 1.61107 1.615 1.61867 1.62215 1.62538 1.62844 1.63127 1.63393 1.63639 1.6387 1.64082 1.64281 1.64463 1.64635 1.6479 1.64936 1.65067 1.65188 1.65292 1.65383 1.65451 1.65494 1.65494 1.65437 1.65283 1.64982 1.64441 1.63527 1.62025 1.59643 1.55989 1.50642 1.43264 1.33804 1.2264 1.1057 0.985722 0.875064 0.779055 0.699613 0.636077 0.586471 0.548346 0.519371 0.497503 0.481104 0.468861 0.459786 0.453104 0.44825 0.44478 0.442377 0.440788 0.439837 0.439377 0.43931 0.439546 0.440031 0.440705 0.441537 0.442482 0.44352 0.444614 0.445746 0.446885 0.448015 0.449104 0.450138 0.451087 0.451938 0.452666 0.453263 0.453713 0.454016 0.454177 0.454218 0.454176 0.454114 0.455578 0.455578 0.455531 0.455396 0.455141 0.454752 0.454218 0.453546 0.452741 0.451824 0.450805 0.449712 0.448561 0.447383 0.446195 0.445032 0.443912 0.442874 0.44194 0.441159 0.440562 0.440212 0.440163 0.440508 0.441343 0.442818 0.445105 0.448457 0.453187 0.459736 0.468661 0.48073 0.49692 0.51853 0.547181 0.5849 0.634003 0.696939 0.775709 0.871043 0.981145 1.10083 1.22162 1.33374 1.42909 1.50371 1.55794 1.59508 1.61934 1.63465 1.64399 1.64952 1.6526 1.65418 1.65478 1.65479 1.65436 1.65369 1.65278 1.65174 1.65053 1.64923 1.64777 1.64622 1.64451 1.6427 1.64072 1.63861 1.63632 1.63389 1.63126 1.62847 1.62546 1.62227 1.61885 1.61524 1.61139 1.60736 1.60309 1.59865 1.59399 1.58918 1.58421 1.57914 1.57396 1.56876 1.56355 1.55841 1.55336 1.5485 1.54384 1.5395 1.53549 1.5319 1.52874 1.52611 1.52401 1.5225 1.52156 1.52126 1.52156 1.5225 1.52401 1.52611 1.52874 1.5319 1.53549 1.5395 1.54384 1.5485 1.55336 1.55841 1.56355 1.56876 1.57396 1.57914 1.58421 1.58918 1.59399 1.59865 1.60309 1.60736 1.61139 1.61524 1.61885 1.62227 1.62546 1.62847 1.63126 1.63389 1.63632 1.63861 1.64072 1.6427 1.64451 1.64622 1.64777 1.64922 1.65053 1.65174 1.65278 1.65368 1.65436 1.65478 1.65478 1.65418 1.65259 1.64951 1.64398 1.63465 1.61934 1.59508 1.55794 1.50372 1.42911 1.33377 1.22166 1.10088 0.981199 0.871096 0.775758 0.696978 0.634029 0.584908 0.547168 0.518489 0.496847 0.480617 0.468502 0.459522 0.452912 0.448111 0.444681 0.442309 0.440743 0.43981 0.439362 0.439305 0.439548 0.440038 0.440716 0.44155 0.442496 0.443534 0.444628 0.445761 0.4469 0.44803 0.449122 0.45016 0.451116 0.451977 0.45272 0.453337 0.453815 0.454156 0.454362 0.454457 0.454471 0.454454 0.455929 0.455897 0.455803 0.455618 0.455316 0.454886 0.45432 0.453623 0.4528 0.451869 0.450841 0.449744 0.44859 0.44741 0.446222 0.445059 0.443938 0.442898 0.441963 0.441176 0.440572 0.440212 0.44015 0.440476 0.441285 0.442726 0.444968 0.448261 0.452912 0.459357 0.468143 0.480027 0.495972 0.517256 0.54548 0.582645 0.631049 0.693138 0.770948 0.865307 0.974588 1.09383 1.2147 1.32748 1.42389 1.4997 1.55504 1.59308 1.61799 1.63375 1.64337 1.64909 1.65228 1.65394 1.65457 1.65461 1.6542 1.65353 1.65262 1.65159 1.65038 1.64908 1.64763 1.64609 1.64439 1.6426 1.64063 1.63855 1.63629 1.6339 1.63131 1.62857 1.62561 1.62249 1.61915 1.61563 1.61188 1.60796 1.60381 1.5995 1.59499 1.59034 1.58552 1.58062 1.57562 1.57061 1.56558 1.56062 1.55576 1.55107 1.54659 1.54241 1.53854 1.53508 1.53204 1.5295 1.52747 1.52601 1.52512 1.52483 1.52512 1.52601 1.52747 1.5295 1.53204 1.53508 1.53854 1.54241 1.54659 1.55107 1.55576 1.56062 1.56558 1.57061 1.57562 1.58062 1.58552 1.59034 1.59499 1.5995 1.60381 1.60796 1.61188 1.61563 1.61915 1.62249 1.62561 1.62857 1.63131 1.6339 1.63629 1.63855 1.64063 1.6426 1.64439 1.64609 1.64763 1.64908 1.65038 1.65158 1.65262 1.65352 1.65419 1.6546 1.65457 1.65393 1.65228 1.64908 1.64337 1.63374 1.61799 1.59308 1.55505 1.49972 1.42391 1.32752 1.21475 1.09388 0.974643 0.865359 0.770994 0.693172 0.631068 0.582645 0.545457 0.517204 0.495886 0.4799 0.467968 0.459126 0.452619 0.447896 0.444524 0.442196 0.440664 0.439756 0.439328 0.439285 0.43954 0.440038 0.440723 0.441562 0.442512 0.443553 0.44465 0.445785 0.446928 0.448063 0.449161 0.450207 0.451176 0.452054 0.45282 0.453467 0.453982 0.454368 0.454628 0.45478 0.454848 0.454867 0.456326 0.456268 0.456132 0.455898 0.455548 0.455074 0.45447 0.453743 0.452895 0.451946 0.450905 0.449797 0.448636 0.447452 0.44626 0.445093 0.443969 0.442925 0.441983 0.441188 0.440574 0.440199 0.440117 0.440418 0.441194 0.442591 0.444775 0.447992 0.452543 0.458853 0.467463 0.479111 0.494743 0.515613 0.543292 0.57975 0.627261 0.688266 0.764842 0.857937 0.966139 1.08476 1.2057 1.31928 1.41704 1.4944 1.5512 1.59042 1.6162 1.63256 1.64258 1.64854 1.6519 1.65365 1.65434 1.65441 1.65402 1.65337 1.65247 1.65144 1.65024 1.64895 1.64751 1.64598 1.6443 1.64253 1.64059 1.63854 1.63632 1.63397 1.63143 1.62875 1.62587 1.62283 1.61958 1.61617 1.61254 1.60875 1.60474 1.60059 1.59625 1.59178 1.58717 1.58247 1.57769 1.57289 1.56808 1.56335 1.55871 1.55424 1.54996 1.54597 1.54228 1.53899 1.53609 1.53367 1.53174 1.53035 1.52949 1.52922 1.52949 1.53035 1.53174 1.53367 1.53609 1.53899 1.54228 1.54597 1.54996 1.55424 1.55871 1.56335 1.56808 1.57289 1.57769 1.58247 1.58717 1.59178 1.59625 1.60059 1.60474 1.60875 1.61254 1.61617 1.61958 1.62283 1.62587 1.62875 1.63143 1.63397 1.63632 1.63854 1.64059 1.64253 1.6443 1.64598 1.64751 1.64895 1.65024 1.65144 1.65247 1.65336 1.65402 1.6544 1.65434 1.65364 1.65189 1.64854 1.64257 1.63255 1.6162 1.59042 1.5512 1.49442 1.41706 1.31932 1.20575 1.08481 0.966194 0.857987 0.764884 0.688295 0.627274 0.579742 0.543258 0.515549 0.494643 0.478968 0.46727 0.458603 0.452228 0.447604 0.444308 0.442036 0.440547 0.439673 0.439271 0.439248 0.439519 0.44003 0.440724 0.441571 0.442529 0.443576 0.444679 0.44582 0.44697 0.448114 0.449223 0.450283 0.45127 0.452171 0.452966 0.453648 0.454207 0.454642 0.454957 0.455164 0.45528 0.455329 0.456757 0.456677 0.456503 0.456224 0.455827 0.455309 0.454665 0.453904 0.453028 0.452056 0.450996 0.449874 0.448702 0.447508 0.446308 0.445134 0.444003 0.442951 0.441999 0.441193 0.440564 0.44017 0.440064 0.440333 0.441068 0.442412 0.444526 0.447652 0.452083 0.458234 0.466633 0.478001 0.493259 0.513635 0.540663 0.576279 0.622722 0.682425 0.757512 0.849067 0.955929 1.07374 1.1947 1.30918 1.40853 1.48779 1.54637 1.58707 1.61395 1.63107 1.64159 1.64788 1.65144 1.65331 1.65409 1.65421 1.65385 1.65321 1.65233 1.65131 1.65013 1.64885 1.64742 1.64591 1.64425 1.6425 1.64059 1.63858 1.6364 1.63411 1.63163 1.62902 1.62622 1.62328 1.62014 1.61684 1.61335 1.60971 1.60587 1.60189 1.59774 1.59349 1.58909 1.58463 1.58008 1.57554 1.57098 1.56651 1.56211 1.55789 1.55385 1.55009 1.54661 1.5435 1.54076 1.53848 1.53666 1.53535 1.53454 1.53428 1.53454 1.53535 1.53666 1.53848 1.54076 1.5435 1.54661 1.55009 1.55385 1.55789 1.56211 1.56651 1.57098 1.57554 1.58008 1.58463 1.58909 1.59349 1.59774 1.60189 1.60587 1.60971 1.61335 1.61684 1.62014 1.62328 1.62622 1.62902 1.63163 1.63411 1.63641 1.63858 1.64059 1.6425 1.64425 1.64591 1.64742 1.64885 1.65013 1.65131 1.65233 1.65321 1.65384 1.6542 1.65409 1.65331 1.65143 1.64787 1.64159 1.63106 1.61395 1.58707 1.54638 1.48781 1.40856 1.30923 1.19475 1.07379 0.955984 0.849115 0.757551 0.682448 0.622727 0.576261 0.540619 0.513558 0.493145 0.477841 0.466422 0.457964 0.451746 0.447241 0.444034 0.441832 0.440395 0.439561 0.439191 0.439193 0.439484 0.440011 0.440719 0.441578 0.442546 0.443602 0.444715 0.445866 0.447028 0.448184 0.449309 0.450387 0.451397 0.452326 0.453154 0.453876 0.45448 0.454966 0.455333 0.455591 0.45575 0.455823 0.457212 0.457112 0.456905 0.456585 0.456144 0.455582 0.454898 0.4541 0.453193 0.452195 0.451113 0.449973 0.448785 0.447579 0.446367 0.445182 0.44404 0.442976 0.442012 0.44119 0.440542 0.440124 0.439989 0.440221 0.440909 0.442191 0.444226 0.447247 0.45154 0.45751 0.465667 0.476714 0.491547 0.511357 0.537643 0.572293 0.617511 0.675716 0.749078 0.838827 0.944087 1.06088 1.18175 1.2972 1.39836 1.47981 1.54052 1.58299 1.6112 1.62925 1.6404 1.64709 1.65091 1.65294 1.65382 1.654 1.65368 1.65307 1.65221 1.65121 1.65004 1.64878 1.64737 1.64588 1.64425 1.64253 1.64066 1.63869 1.63656 1.63432 1.63192 1.62939 1.62668 1.62384 1.62081 1.61765 1.6143 1.61082 1.60716 1.60338 1.59944 1.5954 1.59125 1.58704 1.58275 1.57848 1.5742 1.57 1.56588 1.56192 1.55815 1.55462 1.55137 1.54847 1.54591 1.54379 1.54208 1.54086 1.54011 1.53986 1.54011 1.54086 1.54208 1.54379 1.54591 1.54847 1.55137 1.55462 1.55815 1.56192 1.56588 1.57 1.5742 1.57848 1.58275 1.58704 1.59125 1.5954 1.59944 1.60338 1.60716 1.61082 1.6143 1.61765 1.62081 1.62384 1.62668 1.62939 1.63192 1.63432 1.63656 1.63869 1.64066 1.64253 1.64425 1.64588 1.64737 1.64878 1.65004 1.65121 1.65221 1.65307 1.65368 1.65399 1.65382 1.65294 1.6509 1.64709 1.6404 1.62925 1.61121 1.583 1.54053 1.47983 1.39839 1.29725 1.1818 1.06093 0.944141 0.838874 0.749112 0.675734 0.617509 0.572267 0.537588 0.511268 0.491417 0.476538 0.465438 0.457219 0.451181 0.446811 0.443708 0.441584 0.440209 0.439422 0.439088 0.43912 0.439435 0.439982 0.440707 0.44158 0.442562 0.443632 0.444758 0.445923 0.447099 0.448272 0.449416 0.450517 0.451554 0.452514 0.453379 0.454142 0.454791 0.455326 0.455742 0.456047 0.456242 0.456337 0.457682 0.457565 0.457328 0.45697 0.456487 0.455884 0.45516 0.454326 0.453386 0.452359 0.451253 0.450091 0.448885 0.447661 0.446435 0.445235 0.444079 0.442999 0.442019 0.441178 0.440508 0.440063 0.439895 0.440084 0.440719 0.441932 0.443878 0.446783 0.450924 0.456691 0.464582 0.475273 0.489633 0.508817 0.534279 0.567856 0.61171 0.668239 0.739657 0.827347 0.930736 1.04627 1.16691 1.28333 1.38646 1.47039 1.53357 1.57812 1.60792 1.62708 1.63898 1.64616 1.65029 1.65253 1.65353 1.65379 1.65352 1.65295 1.65212 1.65114 1.64999 1.64874 1.64736 1.64589 1.64429 1.64261 1.64078 1.63886 1.63679 1.63462 1.63228 1.62984 1.62723 1.6245 1.6216 1.61858 1.61538 1.61207 1.6086 1.60502 1.6013 1.5975 1.5936 1.58965 1.58564 1.58165 1.57766 1.57375 1.56992 1.56625 1.56275 1.55948 1.55647 1.55379 1.55142 1.54946 1.54789 1.54676 1.54606 1.54584 1.54606 1.54676 1.54789 1.54946 1.55142 1.55379 1.55647 1.55948 1.56275 1.56625 1.56992 1.57375 1.57766 1.58165 1.58564 1.58965 1.5936 1.5975 1.6013 1.60502 1.6086 1.61207 1.61538 1.61858 1.6216 1.6245 1.62723 1.62984 1.63228 1.63462 1.63679 1.63886 1.64078 1.64261 1.64429 1.64589 1.64736 1.64874 1.64999 1.65114 1.65212 1.65295 1.65352 1.65378 1.65353 1.65252 1.65029 1.64616 1.63898 1.62708 1.60792 1.57813 1.53358 1.47042 1.3865 1.28338 1.16696 1.04633 0.930789 0.827391 0.739688 0.668252 0.611701 0.567821 0.534213 0.508715 0.489489 0.47508 0.464334 0.45638 0.450542 0.446324 0.443335 0.441299 0.439991 0.439256 0.438965 0.43903 0.439373 0.439943 0.440688 0.441579 0.442578 0.443664 0.444806 0.445988 0.447182 0.448375 0.449542 0.450669 0.451735 0.452728 0.453631 0.454435 0.45513 0.455711 0.456173 0.456519 0.456747 0.456861 0.458158 0.458026 0.457763 0.45737 0.45685 0.456207 0.455445 0.454574 0.453601 0.452543 0.451411 0.450224 0.448997 0.447754 0.446509 0.445292 0.444118 0.443021 0.442021 0.441158 0.440463 0.439988 0.439782 0.439925 0.440502 0.44164 0.443489 0.446267 0.450242 0.455791 0.463391 0.473697 0.487545 0.50605 0.530617 0.56303 0.605398 0.660093 0.729366 0.814754 0.916 1.03001 1.15023 1.26757 1.37279 1.45946 1.52542 1.57238 1.60403 1.62452 1.63731 1.64508 1.64958 1.65206 1.65322 1.65357 1.65338 1.65285 1.65205 1.65109 1.64997 1.64875 1.64739 1.64596 1.64439 1.64274 1.64096 1.63909 1.63708 1.63498 1.63273 1.63037 1.62787 1.62525 1.62248 1.61961 1.61657 1.61344 1.61016 1.6068 1.6033 1.59975 1.5961 1.59242 1.5887 1.58499 1.5813 1.57769 1.57415 1.57078 1.56755 1.56456 1.56179 1.55933 1.55717 1.55537 1.55393 1.5529 1.55226 1.55206 1.55226 1.5529 1.55393 1.55537 1.55717 1.55933 1.56179 1.56456 1.56755 1.57078 1.57415 1.57769 1.5813 1.58499 1.5887 1.59242 1.5961 1.59975 1.6033 1.6068 1.61016 1.61344 1.61658 1.61961 1.62248 1.62525 1.62787 1.63037 1.63273 1.63498 1.63708 1.63909 1.64096 1.64274 1.64439 1.64595 1.64739 1.64875 1.64997 1.65109 1.65205 1.65284 1.65337 1.65357 1.65321 1.65206 1.64958 1.64508 1.63731 1.62452 1.60403 1.57239 1.52544 1.45949 1.37283 1.26763 1.15029 1.03007 0.916053 0.814795 0.729393 0.6601 0.605382 0.562987 0.530542 0.505937 0.487388 0.473489 0.463126 0.45546 0.449839 0.445784 0.442921 0.440979 0.439746 0.439069 0.438823 0.438925 0.439299 0.439894 0.440663 0.441575 0.442593 0.443697 0.444858 0.44606 0.447276 0.448491 0.449684 0.450839 0.451936 0.452963 0.453904 0.454749 0.455486 0.456111 0.456616 0.456998 0.457256 0.457386 0.458635 0.458489 0.458202 0.457779 0.457223 0.456544 0.455744 0.454838 0.453832 0.452743 0.451582 0.45037 0.449119 0.447854 0.446589 0.445352 0.444159 0.44304 0.442019 0.441131 0.440407 0.439898 0.439653 0.439746 0.440259 0.441317 0.443063 0.445706 0.449505 0.454821 0.462112 0.472008 0.485311 0.503092 0.526705 0.557874 0.59865 0.651371 0.718317 0.801172 0.900002 1.01221 1.13177 1.24991 1.35727 1.4469 1.51597 1.56566 1.59946 1.62149 1.63534 1.64381 1.64877 1.65153 1.65287 1.65335 1.65323 1.65276 1.652 1.65108 1.64998 1.64879 1.64747 1.64606 1.64453 1.64293 1.6412 1.63938 1.63744 1.63541 1.63324 1.63099 1.62859 1.62609 1.62346 1.62073 1.61787 1.61491 1.61183 1.60868 1.60542 1.6021 1.59872 1.59531 1.59187 1.58846 1.58506 1.58175 1.57852 1.57543 1.57249 1.56976 1.56725 1.56501 1.56305 1.56142 1.56011 1.55918 1.5586 1.55842 1.5586 1.55918 1.56011 1.56142 1.56305 1.56501 1.56725 1.56976 1.57249 1.57543 1.57852 1.58175 1.58506 1.58846 1.59187 1.59531 1.59872 1.6021 1.60542 1.60868 1.61183 1.61491 1.61787 1.62073 1.62346 1.62609 1.62859 1.63099 1.63324 1.63541 1.63744 1.63938 1.6412 1.64293 1.64453 1.64606 1.64746 1.64879 1.64998 1.65107 1.652 1.65275 1.65323 1.65335 1.65287 1.65153 1.64876 1.64381 1.63534 1.62149 1.59946 1.56567 1.51599 1.44694 1.35732 1.24996 1.13183 1.01227 0.900055 0.801212 0.718341 0.651374 0.598628 0.557823 0.526621 0.502967 0.48514 0.471784 0.46183 0.454471 0.449081 0.445201 0.442471 0.440631 0.439476 0.438861 0.438665 0.438807 0.439214 0.439838 0.440632 0.441566 0.442606 0.443731 0.444914 0.446137 0.447377 0.448617 0.449836 0.451021 0.45215 0.453212 0.45419 0.455075 0.455853 0.456518 0.45706 0.457477 0.45776 0.457905 0.459106 0.458947 0.458639 0.458188 0.4576 0.456886 0.456053 0.455112 0.454073 0.452954 0.451764 0.450525 0.449249 0.44796 0.446673 0.445413 0.444198 0.443057 0.442011 0.441096 0.440342 0.439797 0.439509 0.439549 0.439996 0.440969 0.442607 0.445108 0.448722 0.453792 0.46076 0.470224 0.482954 0.499976 0.522587 0.552445 0.591541 0.642168 0.706623 0.786726 0.882868 0.992958 1.11156 1.23032 1.33982 1.43259 1.50507 1.55785 1.5941 1.61794 1.63303 1.64232 1.64782 1.65093 1.65249 1.65311 1.65309 1.65268 1.65198 1.65109 1.65003 1.64887 1.64758 1.64621 1.64473 1.64317 1.64149 1.63974 1.63786 1.63591 1.63383 1.63167 1.62938 1.62701 1.62451 1.62194 1.61924 1.61646 1.61358 1.61064 1.60761 1.60454 1.60141 1.59827 1.59511 1.59199 1.58889 1.58587 1.58293 1.58013 1.57747 1.57501 1.57274 1.57072 1.56896 1.56749 1.56632 1.56548 1.56496 1.5648 1.56496 1.56548 1.56632 1.56749 1.56896 1.57072 1.57274 1.57501 1.57747 1.58013 1.58293 1.58587 1.58889 1.59199 1.59511 1.59827 1.60141 1.60454 1.60761 1.61064 1.61358 1.61646 1.61924 1.62194 1.62451 1.62701 1.62938 1.63167 1.63383 1.63591 1.63786 1.63974 1.64149 1.64317 1.64473 1.64621 1.64758 1.64887 1.65003 1.65109 1.65197 1.65268 1.65309 1.65311 1.65249 1.65092 1.64781 1.64232 1.63303 1.61794 1.59411 1.55786 1.50509 1.43263 1.33987 1.23038 1.11162 0.993018 0.882919 0.786764 0.706643 0.642166 0.591514 0.552387 0.522494 0.499841 0.482772 0.469987 0.460461 0.453424 0.448278 0.444581 0.441991 0.440258 0.439187 0.438636 0.438493 0.438677 0.43912 0.439774 0.440595 0.441554 0.442618 0.443766 0.444971 0.446218 0.447482 0.448749 0.449996 0.451211 0.452372 0.453469 0.454483 0.455406 0.456222 0.456924 0.457501 0.457947 0.458253 0.458411 0.459564 0.459395 0.459068 0.458592 0.457975 0.45723 0.456364 0.455391 0.45432 0.45317 0.451951 0.450684 0.449382 0.448069 0.446757 0.445474 0.444235 0.44307 0.441998 0.441055 0.440269 0.439686 0.439352 0.439337 0.439715 0.4406 0.442125 0.44448 0.447901 0.452717 0.459348 0.468365 0.480502 0.496735 0.518305 0.5468 0.584143 0.632572 0.694392 0.771542 0.864724 0.97237 1.08968 1.20879 1.32035 1.41638 1.49256 1.54879 1.58785 1.61376 1.63031 1.64057 1.64671 1.65023 1.65206 1.65285 1.65295 1.65262 1.65197 1.65113 1.65011 1.64899 1.64774 1.64641 1.64497 1.64345 1.64183 1.64014 1.63834 1.63646 1.63448 1.63242 1.63024 1.62799 1.62563 1.62321 1.62067 1.61808 1.6154 1.61267 1.60986 1.60703 1.60416 1.60128 1.5984 1.59555 1.59274 1.59001 1.58736 1.58484 1.58244 1.58024 1.57821 1.5764 1.57483 1.57352 1.57248 1.57173 1.57127 1.57112 1.57127 1.57173 1.57248 1.57352 1.57483 1.5764 1.57821 1.58024 1.58244 1.58484 1.58736 1.59001 1.59274 1.59555 1.5984 1.60128 1.60416 1.60703 1.60986 1.61267 1.6154 1.61808 1.62068 1.62321 1.62563 1.62799 1.63024 1.63242 1.63448 1.63646 1.63834 1.64014 1.64183 1.64345 1.64497 1.64641 1.64774 1.64899 1.65011 1.65113 1.65197 1.65261 1.65294 1.65285 1.65206 1.65022 1.6467 1.64057 1.63031 1.61376 1.58786 1.5488 1.49259 1.41642 1.3204 1.20885 1.08975 0.97243 0.864775 0.771578 0.694409 0.632567 0.584111 0.546736 0.518204 0.496591 0.480309 0.468116 0.459035 0.452333 0.447439 0.443933 0.441487 0.439866 0.438881 0.438398 0.438309 0.438537 0.439017 0.439703 0.440553 0.441538 0.442626 0.443798 0.445029 0.4463 0.44759 0.448884 0.45016 0.451405 0.452598 0.453729 0.454778 0.455736 0.456587 0.457323 0.457931 0.458404 0.458729 0.458899 0.460008 0.459829 0.459485 0.458986 0.458343 0.457569 0.456672 0.455668 0.454568 0.453387 0.45214 0.450845 0.449517 0.448178 0.446842 0.445534 0.44427 0.443079 0.44198 0.441007 0.440187 0.439566 0.439185 0.439113 0.43942 0.440215 0.441624 0.443828 0.447051 0.451606 0.457892 0.46645 0.477977 0.493399 0.513899 0.540991 0.576523 0.622671 0.681731 0.755744 0.845703 0.950562 1.0662 1.18534 1.29877 1.39813 1.47827 1.5383 1.58054 1.60885 1.6271 1.63851 1.6454 1.64941 1.65156 1.65256 1.6528 1.65256 1.65198 1.65119 1.65022 1.64914 1.64793 1.64664 1.64525 1.64379 1.64223 1.6406 1.63887 1.63708 1.63518 1.63322 1.63116 1.62903 1.62681 1.62453 1.62217 1.61975 1.61726 1.61473 1.61215 1.60955 1.60692 1.6043 1.60168 1.5991 1.59656 1.59411 1.59173 1.58947 1.58734 1.58537 1.58357 1.58197 1.58058 1.57942 1.5785 1.57784 1.57743 1.5773 1.57743 1.57784 1.5785 1.57942 1.58058 1.58197 1.58357 1.58537 1.58734 1.58947 1.59173 1.59411 1.59656 1.5991 1.60168 1.6043 1.60692 1.60955 1.61215 1.61473 1.61726 1.61975 1.62217 1.62453 1.62681 1.62903 1.63116 1.63322 1.63518 1.63708 1.63887 1.6406 1.64223 1.64379 1.64525 1.64664 1.64793 1.64914 1.65022 1.65119 1.65198 1.65256 1.65279 1.65256 1.65156 1.64941 1.6454 1.63851 1.6271 1.60886 1.58055 1.53832 1.4783 1.39817 1.29883 1.1854 1.06627 0.950622 0.845753 0.755778 0.681746 0.622662 0.576487 0.540922 0.513791 0.493247 0.477774 0.466189 0.457566 0.451207 0.446572 0.443262 0.440966 0.439458 0.438562 0.438149 0.438116 0.438389 0.438907 0.439626 0.440506 0.441517 0.442632 0.443829 0.445085 0.446381 0.447698 0.449019 0.450324 0.451599 0.452824 0.453986 0.455069 0.45606 0.456943 0.45771 0.458346 0.458843 0.459186 0.459365 0.460432 0.460245 0.459886 0.459367 0.458701 0.4579 0.456975 0.455942 0.454812 0.453603 0.452327 0.451005 0.449651 0.448285 0.446924 0.44559 0.444302 0.443084 0.441957 0.440953 0.440099 0.439438 0.43901 0.438879 0.439115 0.439817 0.441109 0.443158 0.446181 0.450471 0.456405 0.464496 0.475402 0.489999 0.509408 0.535069 0.568747 0.612549 0.668745 0.739456 0.825944 0.927667 1.04121 1.15996 1.27502 1.37767 1.46198 1.52618 1.572 1.60308 1.6233 1.63606 1.64385 1.64845 1.65098 1.65223 1.65263 1.6525 1.65201 1.65128 1.65036 1.64932 1.64816 1.64692 1.64558 1.64417 1.64267 1.6411 1.63945 1.63774 1.63593 1.63407 1.63212 1.63012 1.62804 1.6259 1.6237 1.62146 1.61915 1.61682 1.61445 1.61208 1.60968 1.60731 1.60494 1.60262 1.60034 1.59814 1.59602 1.59402 1.59213 1.59039 1.5888 1.58739 1.58617 1.58515 1.58435 1.58377 1.58341 1.5833 1.58341 1.58377 1.58435 1.58515 1.58617 1.58739 1.5888 1.59039 1.59213 1.59402 1.59602 1.59814 1.60034 1.60262 1.60494 1.60731 1.60968 1.61208 1.61445 1.61682 1.61915 1.62146 1.6237 1.6259 1.62804 1.63012 1.63212 1.63407 1.63593 1.63774 1.63945 1.6411 1.64266 1.64417 1.64557 1.64692 1.64816 1.64932 1.65036 1.65128 1.652 1.6525 1.65262 1.65222 1.65098 1.64844 1.64384 1.63606 1.6233 1.60308 1.57202 1.5262 1.46201 1.37771 1.27507 1.16003 1.04128 0.927726 0.825992 0.739489 0.668758 0.612537 0.568707 0.534995 0.509295 0.489841 0.475191 0.464225 0.456068 0.450058 0.445687 0.442576 0.440431 0.43904 0.438234 0.437892 0.437915 0.438235 0.438792 0.439545 0.440454 0.441493 0.442634 0.443857 0.445138 0.44646 0.447804 0.449152 0.450485 0.451789 0.453045 0.454238 0.455352 0.456374 0.457288 0.458082 0.458744 0.45926 0.459619 0.459806 0.460834 0.460641 0.460268 0.459732 0.459044 0.458219 0.457268 0.456208 0.45505 0.453813 0.452511 0.451161 0.449781 0.448389 0.447002 0.445643 0.444329 0.443084 0.441929 0.440894 0.440005 0.439303 0.438828 0.438638 0.438801 0.439411 0.440584 0.442479 0.445298 0.44932 0.4549 0.462519 0.472798 0.486563 0.504869 0.52908 0.560878 0.602286 0.655537 0.722805 0.805588 0.903828 1.01483 1.13272 1.24903 1.35484 1.44348 1.51221 1.56203 1.59626 1.61879 1.63314 1.642 1.64729 1.65028 1.65183 1.65243 1.65244 1.65204 1.65138 1.65052 1.64954 1.64842 1.64723 1.64594 1.64459 1.64315 1.64165 1.64007 1.63844 1.63673 1.63497 1.63313 1.63125 1.6293 1.62731 1.62526 1.62318 1.62106 1.61892 1.61675 1.61459 1.61242 1.61027 1.60814 1.60606 1.60403 1.60208 1.60019 1.59842 1.59676 1.59523 1.59384 1.59261 1.59154 1.59066 1.58995 1.58945 1.58914 1.58905 1.58914 1.58945 1.58995 1.59066 1.59154 1.59261 1.59384 1.59523 1.59676 1.59842 1.60019 1.60208 1.60403 1.60606 1.60814 1.61027 1.61242 1.61459 1.61675 1.61892 1.62106 1.62318 1.62526 1.62731 1.6293 1.63125 1.63313 1.63497 1.63673 1.63844 1.64007 1.64165 1.64315 1.64459 1.64594 1.64723 1.64842 1.64953 1.65052 1.65138 1.65203 1.65243 1.65242 1.65182 1.65028 1.64729 1.64199 1.63314 1.61879 1.59627 1.56204 1.51223 1.44351 1.35489 1.24908 1.13279 1.01489 0.903887 0.805636 0.722836 0.655547 0.602272 0.560835 0.529003 0.504752 0.486398 0.47258 0.462239 0.454552 0.448896 0.444791 0.44188 0.439889 0.438615 0.4379 0.437629 0.437709 0.438076 0.438672 0.439458 0.440398 0.441465 0.442632 0.443881 0.445187 0.446536 0.447905 0.44928 0.450641 0.451974 0.453258 0.454481 0.455624 0.456675 0.457616 0.458436 0.45912 0.459655 0.460027 0.460221 0.461214 0.461014 0.46063 0.460078 0.45937 0.458523 0.457548 0.456463 0.455279 0.454016 0.452687 0.451312 0.449905 0.448488 0.447076 0.445691 0.444351 0.443079 0.441896 0.44083 0.439907 0.439164 0.438641 0.438393 0.438483 0.439 0.440054 0.441794 0.444411 0.448164 0.453389 0.460535 0.470186 0.483116 0.500317 0.523072 0.552975 0.591961 0.642206 0.705916 0.784786 0.879205 0.98719 1.10368 1.22077 1.32951 1.42253 1.4961 1.55037 1.58821 1.61341 1.62964 1.63976 1.6459 1.64944 1.65134 1.65218 1.65235 1.65207 1.65149 1.6507 1.64977 1.64871 1.64757 1.64634 1.64504 1.64366 1.64224 1.64073 1.63918 1.63756 1.6359 1.63417 1.63241 1.63059 1.62874 1.62684 1.62492 1.62297 1.62102 1.61904 1.61708 1.61512 1.61319 1.61128 1.60943 1.60762 1.60589 1.60423 1.60268 1.60122 1.59989 1.59868 1.59761 1.59668 1.59592 1.59531 1.59488 1.59462 1.59453 1.59462 1.59488 1.59531 1.59592 1.59668 1.59761 1.59868 1.59989 1.60122 1.60268 1.60423 1.60589 1.60762 1.60943 1.61128 1.61319 1.61512 1.61708 1.61904 1.62102 1.62297 1.62492 1.62684 1.62874 1.63059 1.63241 1.63417 1.6359 1.63756 1.63918 1.64073 1.64223 1.64366 1.64504 1.64634 1.64757 1.64871 1.64977 1.6507 1.65149 1.65206 1.65235 1.65218 1.65134 1.64944 1.64589 1.63976 1.62964 1.61341 1.58821 1.55039 1.49612 1.42257 1.32956 1.22083 1.10375 0.987255 0.879263 0.784832 0.705946 0.642216 0.591945 0.552929 0.522991 0.500195 0.482946 0.469962 0.460248 0.453032 0.447729 0.443891 0.441182 0.439344 0.438187 0.437563 0.437363 0.437501 0.437914 0.438549 0.439369 0.440338 0.441433 0.442627 0.4439 0.445232 0.446606 0.448001 0.449402 0.45079 0.45215 0.453462 0.454713 0.455883 0.45696 0.457926 0.458769 0.459473 0.460024 0.460408 0.460608 0.461569 0.461364 0.46097 0.460404 0.459679 0.458811 0.457815 0.456705 0.455497 0.454209 0.452855 0.451454 0.450022 0.44858 0.447143 0.445733 0.444368 0.443069 0.441858 0.440761 0.439804 0.439021 0.438451 0.438145 0.438163 0.438588 0.439524 0.44111 0.443524 0.447011 0.451882 0.458558 0.467584 0.479683 0.495782 0.517085 0.545093 0.581647 0.628852 0.688915 0.763691 0.853972 0.958464 1.07296 1.19026 1.30156 1.39891 1.47758 1.53675 1.57867 1.60698 1.62542 1.63706 1.6442 1.64841 1.65075 1.65187 1.65224 1.65209 1.65161 1.6509 1.65003 1.64903 1.64794 1.64677 1.64553 1.64422 1.64286 1.64143 1.63996 1.63843 1.63686 1.63524 1.63359 1.63189 1.63018 1.62842 1.62666 1.62487 1.62309 1.6213 1.61952 1.61776 1.61603 1.61433 1.61268 1.61108 1.60956 1.60811 1.60675 1.60548 1.60433 1.60328 1.60236 1.60156 1.60091 1.60039 1.60002 1.59979 1.59972 1.59979 1.60002 1.60039 1.60091 1.60156 1.60236 1.60328 1.60433 1.60548 1.60675 1.60811 1.60956 1.61108 1.61268 1.61433 1.61603 1.61776 1.61952 1.6213 1.62309 1.62487 1.62666 1.62842 1.63018 1.63189 1.63359 1.63524 1.63686 1.63843 1.63996 1.64143 1.64285 1.64422 1.64553 1.64676 1.64794 1.64903 1.65003 1.65089 1.65161 1.65208 1.65223 1.65187 1.65074 1.6484 1.6442 1.63705 1.62542 1.60698 1.57867 1.53676 1.47761 1.39895 1.30161 1.19032 1.07303 0.958528 0.854029 0.763737 0.688944 0.62886 0.581629 0.545046 0.517002 0.495658 0.479509 0.467355 0.458265 0.451518 0.446568 0.442995 0.440486 0.438801 0.43776 0.437226 0.437097 0.437291 0.437749 0.438423 0.439276 0.440276 0.441397 0.442616 0.443915 0.445271 0.446669 0.44809 0.449516 0.45093 0.452316 0.453655 0.454931 0.456127 0.457228 0.458217 0.45908 0.459802 0.460367 0.460761 0.460967 0.4619 0.46169 0.461287 0.460708 0.459968 0.459082 0.458065 0.456934 0.455703 0.454391 0.45