# vtk DataFile Version 3.0
Immiscible displacement
ASCII
DATASET RECTILINEAR_GRID
DIMENSIONS 200 200 1
X_COORDINATES 200 double
1 2 3 4 5 6 7 8 9 10 11 12 13 14 15 16 17 18 19 20 21 22 23 24 25 26 27 28 29 30 31 32 33 34 35 36 37 38 39 40 41 42 43 44 45 46 47 48 49 50 51 52 53 54 55 56 57 58 59 60 61 62 63 64 65 66 67 68 69 70 71 72 73 74 75 76 77 78 79 80 81 82 83 84 85 86 87 88 89 90 91 92 93 94 95 96 97 98 99 100 101 102 103 104 105 106 107 108 109 110 111 112 113 114 115 116 117 118 119 120 121 122 123 124 125 126 127 128 129 130 131 132 133 134 135 136 137 138 139 140 141 142 143 144 145 146 147 148 149 150 151 152 153 154 155 156 157 158 159 160 161 162 163 164 165 166 167 168 169 170 171 172 173 174 175 176 177 178 179 180 181 182 183 184 185 186 187 188 189 190 191 192 193 194 195 196 197 198 199 200 
Y_COORDINATES 200 double
1 2 3 4 5 6 7 8 9 10 11 12 13 14 15 16 17 18 19 20 21 22 23 24 25 26 27 28 29 30 31 32 33 34 35 36 37 38 39 40 41 42 43 44 45 46 47 48 49 50 51 52 53 54 55 56 57 58 59 60 61 62 63 64 65 66 67 68 69 70 71 72 73 74 75 76 77 78 79 80 81 82 83 84 85 86 87 88 89 90 91 92 93 94 95 96 97 98 99 100 101 102 103 104 105 106 107 108 109 110 111 112 113 114 115 116 117 118 119 120 121 122 123 124 125 126 127 128 129 130 131 132 133 134 135 136 137 138 139 140 141 142 143 144 145 146 147 148 149 150 151 152 153 154 155 156 157 158 159 160 161 162 163 164 165 166 167 168 169 170 171 172 173 174 175 176 177 178 179 180 181 182 183 184 185 186 187 188 189 190 191 192 193 194 195 196 197 198 199 200 
Z_COORDINATES 1 double
0
POINT_DATA 40000
SCALARS rho double 1
LOOKUP_TABLE default
0.432293 0.432195 0.432056 0.431903 0.431752 0.431609 0.43148 0.431368 0.431274 0.431201 0.431151 0.431127 0.431131 0.431167 0.431239 0.431356 0.431525 0.431758 0.43207 0.432481 0.433018 0.433718 0.434628 0.435815 0.437366 0.4394 0.442077 0.445612 0.450293 0.456512 0.464785 0.475808 0.490497 0.510056 0.53603 0.570363 0.615363 0.673574 0.747342 0.838041 0.94489 1.06379 1.18698 1.30448 1.40701 1.48905 1.54974 1.59185 1.61965 1.63738 1.6484 1.65515 1.65922 1.66165 1.6631 1.66395 1.66444 1.66473 1.66489 1.665 1.66506 1.66511 1.66515 1.6652 1.66525 1.66531 1.66537 1.66545 1.66553 1.66562 1.66572 1.66583 1.66594 1.66606 1.66618 1.66631 1.66644 1.66658 1.66671 1.66685 1.66698 1.66712 1.66724 1.66738 1.6675 1.66763 1.66774 1.66785 1.66795 1.66805 1.66814 1.66822 1.66829 1.66836 1.66841 1.66846 1.66848 1.66851 1.66852 1.66852 1.66851 1.66849 1.66846 1.66842 1.66837 1.66831 1.66824 1.66816 1.66807 1.66798 1.66787 1.66776 1.66764 1.66752 1.66739 1.66726 1.66712 1.66699 1.66685 1.66671 1.66657 1.66644 1.6663 1.66617 1.66603 1.66591 1.66579 1.66568 1.66557 1.66548 1.66538 1.66531 1.66523 1.66517 1.66511 1.66507 1.66502 1.66498 1.66494 1.66488 1.66478 1.66461 1.66432 1.66383 1.66297 1.66151 1.65903 1.6549 1.64806 1.63687 1.61889 1.59072 1.54812 1.48683 1.40417 1.30112 1.18336 1.06022 0.941643 0.835288 0.745139 0.671898 0.614145 0.569523 0.535492 0.509753 0.490377 0.475831 0.464918 0.456731 0.450581 0.445953 0.442461 0.439819 0.437813 0.436285 0.435117 0.434222 0.433534 0.433007 0.432603 0.432296 0.432066 0.431899 0.431782 0.431707 0.431668 0.431659 0.431677 0.431719 0.431782 0.431866 0.431967 0.432085 0.432217 0.432362 0.432513 0.432665 0.432802 0.432899 0.432188 0.432112 0.431991 0.431854 0.431712 0.431578 0.431455 0.431348 0.431258 0.431189 0.431142 0.43112 0.431125 0.431164 0.431238 0.431357 0.431527 0.431761 0.432073 0.432486 0.433022 0.433722 0.434631 0.435817 0.437364 0.439394 0.442062 0.445588 0.450254 0.456453 0.464699 0.475685 0.490323 0.509814 0.535696 0.569908 0.614751 0.672767 0.746302 0.836754 0.94337 1.06211 1.18526 1.30286 1.40563 1.48795 1.54893 1.59129 1.61928 1.63714 1.64825 1.65506 1.65916 1.66163 1.66308 1.66394 1.66444 1.66473 1.66489 1.665 1.66506 1.66511 1.66515 1.6652 1.66524 1.6653 1.66536 1.66543 1.66551 1.6656 1.66569 1.6658 1.6659 1.66603 1.66614 1.66627 1.66639 1.66653 1.66665 1.66679 1.66692 1.66706 1.66718 1.66731 1.66743 1.66756 1.66766 1.66778 1.66787 1.66798 1.66806 1.66814 1.66821 1.66828 1.66832 1.66837 1.6684 1.66842 1.66843 1.66844 1.66842 1.66841 1.66837 1.66834 1.66828 1.66823 1.66815 1.66808 1.66799 1.6679 1.66779 1.66769 1.66757 1.66745 1.66732 1.6672 1.66706 1.66693 1.66679 1.66666 1.66652 1.66639 1.66625 1.66613 1.66599 1.66588 1.66576 1.66565 1.66554 1.66545 1.66536 1.66529 1.66521 1.66516 1.6651 1.66506 1.66502 1.66499 1.66494 1.66488 1.66478 1.66462 1.66432 1.66383 1.66295 1.66148 1.65898 1.65481 1.64791 1.63663 1.61852 1.59016 1.54731 1.48573 1.40278 1.29951 1.18165 1.05855 0.940134 0.834011 0.744109 0.671098 0.613539 0.569072 0.53516 0.509513 0.490204 0.475708 0.464831 0.456672 0.45054 0.445927 0.442445 0.439811 0.437809 0.436285 0.435118 0.434225 0.433537 0.43301 0.432605 0.432298 0.432067 0.431899 0.43178 0.431704 0.431663 0.431653 0.431668 0.431708 0.431769 0.431849 0.431946 0.43206 0.432186 0.432323 0.432465 0.432602 0.432721 0.432797 0.432035 0.431978 0.431881 0.431764 0.43164 0.431519 0.431407 0.431309 0.431226 0.431163 0.431121 0.431104 0.431114 0.431156 0.431233 0.431355 0.431527 0.431764 0.432078 0.432491 0.433028 0.433727 0.434634 0.435815 0.437355 0.439375 0.442029 0.445534 0.450172 0.45633 0.46452 0.47543 0.489964 0.509314 0.535007 0.568969 0.613489 0.671101 0.744162 0.834102 0.940246 1.05866 1.18174 1.29956 1.40279 1.48572 1.54729 1.59015 1.61852 1.63665 1.64795 1.65487 1.65905 1.66156 1.66305 1.66393 1.66443 1.66473 1.66489 1.665 1.66506 1.6651 1.66514 1.66518 1.66522 1.66528 1.66533 1.6654 1.66547 1.66556 1.66564 1.66575 1.66585 1.66596 1.66607 1.6662 1.66631 1.66644 1.66656 1.6667 1.66682 1.66695 1.66707 1.6672 1.66731 1.66744 1.66754 1.66765 1.66774 1.66784 1.66792 1.668 1.66807 1.66813 1.66818 1.66822 1.66825 1.66828 1.66828 1.66829 1.66827 1.66826 1.66823 1.66819 1.66814 1.66808 1.66801 1.66794 1.66785 1.66776 1.66766 1.66756 1.66744 1.66733 1.66721 1.66709 1.66695 1.66683 1.66669 1.66657 1.66643 1.66631 1.66617 1.66605 1.66593 1.66582 1.6657 1.6656 1.6655 1.66541 1.66533 1.66526 1.66519 1.66514 1.66509 1.66505 1.66501 1.66498 1.66493 1.66488 1.66478 1.66462 1.66432 1.66381 1.66292 1.66142 1.65887 1.65462 1.6476 1.63614 1.61775 1.58901 1.54566 1.48349 1.39994 1.29621 1.17813 1.05512 0.937032 0.831382 0.741989 0.669449 0.612289 0.568142 0.534477 0.509017 0.489847 0.475454 0.464652 0.456548 0.450456 0.445872 0.44241 0.43979 0.437798 0.436281 0.435118 0.434227 0.43354 0.433013 0.432607 0.432299 0.432066 0.431896 0.431774 0.431696 0.431652 0.431638 0.43165 0.431686 0.431742 0.431816 0.431907 0.432012 0.432128 0.432252 0.432376 0.432494 0.43259 0.432647 0.431861 0.431818 0.431742 0.431647 0.431542 0.431438 0.43134 0.431253 0.431181 0.431126 0.431091 0.43108 0.431095 0.431142 0.431224 0.431349 0.431525 0.431765 0.43208 0.432495 0.433032 0.433729 0.434632 0.435807 0.437337 0.439342 0.441974 0.445447 0.45004 0.456137 0.464242 0.475036 0.48941 0.508544 0.533947 0.567525 0.61155 0.668544 0.740876 0.830032 0.935449 1.05335 1.17631 1.29446 1.39842 1.48227 1.54475 1.58839 1.61735 1.63589 1.64747 1.65457 1.65887 1.66146 1.66299 1.66389 1.66441 1.66472 1.66489 1.66499 1.66505 1.66509 1.66512 1.66516 1.66519 1.66524 1.66529 1.66536 1.66542 1.6655 1.66558 1.66568 1.66577 1.66588 1.66598 1.6661 1.66621 1.66633 1.66645 1.66658 1.66669 1.66682 1.66693 1.66706 1.66716 1.66728 1.66738 1.66749 1.66758 1.66767 1.66775 1.66783 1.66789 1.66795 1.66799 1.66804 1.66806 1.66809 1.66809 1.6681 1.66808 1.66807 1.66804 1.668 1.66795 1.6679 1.66783 1.66776 1.66768 1.66759 1.66749 1.6674 1.66728 1.66718 1.66706 1.66694 1.66681 1.6667 1.66656 1.66644 1.66631 1.6662 1.66607 1.66596 1.66584 1.66573 1.66562 1.66553 1.66543 1.66536 1.66528 1.66521 1.66515 1.66511 1.66506 1.66503 1.66499 1.66497 1.66493 1.66488 1.66477 1.66461 1.6643 1.66378 1.66286 1.66131 1.65869 1.65433 1.64712 1.63537 1.61657 1.58724 1.54311 1.48002 1.39556 1.29111 1.17272 1.04984 0.932267 0.827345 0.738733 0.666916 0.610369 0.566712 0.533427 0.508253 0.489297 0.475061 0.464375 0.456354 0.450323 0.445782 0.442352 0.439754 0.437777 0.43627 0.435113 0.434226 0.433541 0.433014 0.432608 0.432298 0.432062 0.431889 0.431765 0.431683 0.431634 0.431616 0.431623 0.431653 0.431702 0.431769 0.431851 0.431945 0.432047 0.432155 0.432261 0.432358 0.432434 0.432477 0.431679 0.431647 0.431588 0.431513 0.431427 0.431341 0.431258 0.431184 0.431123 0.431078 0.431052 0.431048 0.43107 0.431122 0.431209 0.431339 0.431519 0.431762 0.43208 0.432495 0.433032 0.433727 0.434624 0.43579 0.437307 0.439291 0.441893 0.445323 0.449857 0.455871 0.463861 0.474497 0.488655 0.507497 0.532508 0.565568 0.608922 0.665079 0.736424 0.824511 0.928928 1.04613 1.16889 1.28747 1.3924 1.4775 1.54124 1.58594 1.61572 1.63484 1.6468 1.65416 1.65862 1.6613 1.6629 1.66384 1.66438 1.6647 1.66487 1.66498 1.66503 1.66507 1.6651 1.66513 1.66516 1.6652 1.66524 1.6653 1.66536 1.66543 1.6655 1.66559 1.66568 1.66578 1.66587 1.66598 1.66609 1.6662 1.66631 1.66643 1.66654 1.66666 1.66677 1.66688 1.66699 1.6671 1.66719 1.66729 1.66738 1.66747 1.66754 1.66762 1.66767 1.66773 1.66777 1.66782 1.66784 1.66787 1.66787 1.66788 1.66786 1.66785 1.66782 1.66779 1.66773 1.66769 1.66762 1.66755 1.66747 1.66739 1.6673 1.66721 1.6671 1.667 1.66688 1.66677 1.66665 1.66654 1.66641 1.6663 1.66618 1.66607 1.66595 1.66584 1.66573 1.66563 1.66553 1.66545 1.66536 1.66529 1.66521 1.66516 1.6651 1.66507 1.66503 1.665 1.66497 1.66495 1.66491 1.66486 1.66476 1.66459 1.66427 1.66372 1.66277 1.66116 1.65843 1.65391 1.64644 1.63431 1.61492 1.58477 1.53957 1.47522 1.38952 1.28412 1.16531 1.04264 0.925787 0.821866 0.73432 0.663484 0.607766 0.564774 0.532002 0.507215 0.488548 0.474525 0.463995 0.456088 0.450139 0.445657 0.442268 0.4397 0.437743 0.43625 0.435102 0.43422 0.433538 0.433012 0.432604 0.432293 0.432055 0.431879 0.43175 0.431664 0.431611 0.431587 0.431588 0.431611 0.431652 0.43171 0.431781 0.431863 0.431951 0.432042 0.432129 0.432207 0.432267 0.432299 0.431498 0.431474 0.431429 0.43137 0.431302 0.431232 0.431165 0.431105 0.431056 0.431021 0.431004 0.431009 0.431038 0.431097 0.43119 0.431325 0.431508 0.431754 0.432075 0.432491 0.433026 0.433718 0.434608 0.435763 0.437261 0.439219 0.441783 0.44516 0.449619 0.455528 0.463374 0.473811 0.487699 0.506173 0.530691 0.563098 0.605607 0.660707 0.7308 0.817525 0.920655 1.03692 1.15938 1.27848 1.38461 1.47129 1.53665 1.58273 1.61357 1.63345 1.64592 1.65361 1.65828 1.6611 1.66277 1.66376 1.66433 1.66467 1.66485 1.66496 1.66501 1.66505 1.66507 1.66509 1.66512 1.66515 1.66518 1.66523 1.66528 1.66535 1.66541 1.66549 1.66557 1.66566 1.66575 1.66585 1.66595 1.66606 1.66616 1.66627 1.66637 1.66648 1.66658 1.66669 1.66679 1.66689 1.66698 1.66708 1.66716 1.66724 1.66731 1.66738 1.66744 1.66749 1.66753 1.66757 1.66759 1.66762 1.66762 1.66763 1.66761 1.6676 1.66757 1.66754 1.66749 1.66745 1.66738 1.66732 1.66724 1.66717 1.66708 1.66699 1.66689 1.66679 1.66668 1.66658 1.66647 1.66636 1.66625 1.66614 1.66602 1.66592 1.66581 1.66571 1.66561 1.66552 1.66543 1.66535 1.66527 1.66521 1.66514 1.6651 1.66505 1.66502 1.66498 1.66497 1.66494 1.66493 1.66489 1.66484 1.66474 1.66456 1.66422 1.66365 1.66264 1.66095 1.65809 1.65335 1.64555 1.63291 1.61276 1.58154 1.53494 1.46898 1.3817 1.27512 1.15583 1.03347 0.917565 0.814934 0.728745 0.659153 0.604483 0.562327 0.530202 0.505903 0.4876 0.473845 0.46351 0.455746 0.4499 0.445492 0.442156 0.439625 0.437695 0.436219 0.435083 0.434208 0.433529 0.433005 0.432597 0.432284 0.432043 0.431863 0.431731 0.43164 0.431581 0.431552 0.431546 0.431561 0.431594 0.431642 0.431701 0.43177 0.431843 0.431918 0.431989 0.432051 0.432097 0.432121 0.431321 0.431303 0.43127 0.431225 0.431172 0.431118 0.431065 0.431018 0.430981 0.430958 0.43095 0.430964 0.431 0.431066 0.431165 0.431305 0.431493 0.431742 0.432064 0.432481 0.433014 0.433701 0.434583 0.435723 0.4372 0.439126 0.441645 0.444957 0.449325 0.455109 0.462781 0.47298 0.486543 0.504576 0.528503 0.560126 0.60162 0.655447 0.724024 0.809087 0.910623 1.02569 1.14773 1.26735 1.37489 1.4635 1.53085 1.57867 1.61085 1.63168 1.64479 1.6529 1.65784 1.66083 1.6626 1.66366 1.66427 1.66462 1.66482 1.66493 1.66498 1.66502 1.66503 1.66505 1.66507 1.66509 1.66512 1.66516 1.6652 1.66526 1.66531 1.66538 1.66545 1.66554 1.66562 1.66571 1.6658 1.6659 1.66599 1.66609 1.66619 1.66629 1.66638 1.66649 1.66658 1.66667 1.66676 1.66685 1.66692 1.667 1.66706 1.66713 1.66718 1.66724 1.66727 1.66731 1.66733 1.66735 1.66735 1.66736 1.66735 1.66734 1.66731 1.66728 1.66723 1.66719 1.66713 1.66707 1.667 1.66693 1.66684 1.66676 1.66666 1.66657 1.66647 1.66638 1.66627 1.66617 1.66606 1.66596 1.66586 1.66576 1.66566 1.66557 1.66548 1.6654 1.66531 1.66524 1.66517 1.66512 1.66506 1.66502 1.66498 1.66496 1.66494 1.66493 1.66491 1.6649 1.66487 1.66482 1.66471 1.66452 1.66416 1.66354 1.66248 1.66067 1.65765 1.65264 1.64441 1.63111 1.61 1.57743 1.5291 1.46115 1.37196 1.26398 1.14419 1.02229 0.907594 0.806559 0.722026 0.653941 0.600534 0.559384 0.528034 0.504321 0.486454 0.47302 0.462921 0.455328 0.449606 0.445288 0.442016 0.43953 0.437631 0.436176 0.435055 0.434189 0.433515 0.432993 0.432585 0.43227 0.432027 0.431844 0.431707 0.431611 0.431546 0.431511 0.431497 0.431505 0.431528 0.431566 0.431614 0.43167 0.431729 0.43179 0.431846 0.431894 0.431929 0.431948 0.43115 0.431138 0.431114 0.431081 0.431042 0.431001 0.430961 0.430928 0.430902 0.430889 0.430891 0.430914 0.430958 0.431031 0.431136 0.431281 0.431473 0.431725 0.432049 0.432465 0.432996 0.433676 0.434547 0.43567 0.437122 0.43901 0.441476 0.444713 0.448976 0.454614 0.462085 0.472008 0.485194 0.502718 0.525959 0.556675 0.59699 0.649335 0.716137 0.799234 0.898856 1.01244 1.13386 1.254 1.36312 1.45397 1.5237 1.57362 1.60744 1.62945 1.64337 1.65201 1.65728 1.66048 1.66239 1.66353 1.66418 1.66457 1.66477 1.66489 1.66494 1.66498 1.66499 1.665 1.66501 1.66503 1.66505 1.66508 1.66511 1.66516 1.6652 1.66527 1.66533 1.6654 1.66547 1.66555 1.66563 1.66572 1.66581 1.6659 1.66599 1.66608 1.66617 1.66626 1.66635 1.66644 1.66651 1.6666 1.66667 1.66674 1.6668 1.66686 1.66691 1.66696 1.66699 1.66703 1.66705 1.66707 1.66707 1.66707 1.66706 1.66705 1.66702 1.667 1.66695 1.66691 1.66686 1.6668 1.66673 1.66667 1.66659 1.66651 1.66642 1.66634 1.66624 1.66615 1.66605 1.66596 1.66586 1.66577 1.66568 1.66559 1.6655 1.66542 1.66533 1.66526 1.66519 1.66513 1.66507 1.66502 1.66497 1.66494 1.66491 1.6649 1.66488 1.66488 1.66487 1.66486 1.66483 1.66478 1.66466 1.66446 1.66407 1.66341 1.66226 1.66033 1.65708 1.65173 1.64297 1.62886 1.60656 1.57234 1.52189 1.45157 1.36015 1.25062 1.13035 1.0091 0.895897 0.796779 0.714205 0.647883 0.595948 0.555966 0.525515 0.50248 0.485117 0.472056 0.46223 0.454836 0.449258 0.445044 0.441846 0.439412 0.43755 0.436121 0.435016 0.434161 0.433494 0.432975 0.432568 0.432252 0.432007 0.43182 0.431678 0.431577 0.431507 0.431465 0.431444 0.431444 0.431458 0.431486 0.431522 0.431566 0.431613 0.431661 0.431704 0.431741 0.431767 0.431781 0.430989 0.43098 0.430964 0.430941 0.430913 0.430884 0.430856 0.430834 0.43082 0.430817 0.430829 0.430859 0.430911 0.430991 0.431102 0.431252 0.431448 0.431703 0.432028 0.432443 0.43297 0.433642 0.4345 0.435604 0.437026 0.438872 0.441276 0.444428 0.448573 0.454046 0.46129 0.470902 0.483664 0.500613 0.523083 0.552775 0.591759 0.642423 0.7072 0.788031 0.885404 0.997183 1.11773 1.2383 1.34913 1.44252 1.51502 1.56744 1.60325 1.6267 1.64161 1.65089 1.65659 1.66005 1.66212 1.66336 1.66407 1.66449 1.66472 1.66484 1.6649 1.66493 1.66494 1.66495 1.66495 1.66496 1.66497 1.66499 1.66501 1.66505 1.66509 1.66514 1.66519 1.66525 1.66531 1.66539 1.66546 1.66554 1.66561 1.6657 1.66578 1.66586 1.66594 1.66603 1.6661 1.66619 1.66626 1.66633 1.6664 1.66647 1.66652 1.66658 1.66662 1.66667 1.6667 1.66673 1.66675 1.66677 1.66677 1.66677 1.66676 1.66675 1.66672 1.6667 1.66666 1.66662 1.66657 1.66652 1.66645 1.66639 1.66632 1.66625 1.66616 1.66609 1.666 1.66592 1.66583 1.66575 1.66566 1.66557 1.66548 1.66541 1.66532 1.66525 1.66518 1.66512 1.66505 1.665 1.66495 1.66491 1.66488 1.66486 1.66484 1.66483 1.66482 1.66482 1.66482 1.66482 1.66479 1.66473 1.66461 1.66438 1.66396 1.66324 1.66199 1.65989 1.65638 1.65061 1.64119 1.62608 1.60233 1.5661 1.51315 1.44005 1.34611 1.23492 1.11426 0.993901 0.882525 0.785658 0.705342 0.641033 0.590766 0.552104 0.522666 0.500396 0.483601 0.470959 0.461441 0.454271 0.448856 0.444759 0.441646 0.439272 0.437453 0.436053 0.434968 0.434125 0.433466 0.432951 0.432545 0.432229 0.431981 0.431791 0.431646 0.43154 0.431464 0.431415 0.431387 0.431379 0.431384 0.431402 0.431428 0.431461 0.431497 0.431533 0.431565 0.431593 0.431612 0.431621 0.430836 0.430831 0.43082 0.430806 0.430788 0.430769 0.430752 0.430741 0.430736 0.430743 0.430764 0.430802 0.430861 0.430948 0.431064 0.431219 0.431419 0.431676 0.432001 0.432414 0.432936 0.433599 0.434443 0.435523 0.436912 0.43871 0.441047 0.444105 0.448117 0.453409 0.460403 0.469672 0.481967 0.498284 0.519904 0.548468 0.585981 0.63478 0.697296 0.775568 0.870349 0.979965 1.09935 1.22019 1.33276 1.42896 1.50462 1.55997 1.59814 1.62333 1.63943 1.64951 1.65572 1.65951 1.66178 1.66314 1.66394 1.6644 1.66465 1.66479 1.66485 1.66488 1.66488 1.66489 1.66488 1.66488 1.66488 1.6649 1.66491 1.66494 1.66497 1.66501 1.66505 1.6651 1.66515 1.66522 1.66527 1.66535 1.66541 1.66549 1.66556 1.66564 1.6657 1.66578 1.66585 1.66593 1.66599 1.66606 1.66612 1.66618 1.66623 1.66628 1.66632 1.66636 1.66639 1.66642 1.66643 1.66645 1.66645 1.66646 1.66645 1.66644 1.66641 1.66639 1.66635 1.66632 1.66627 1.66622 1.66616 1.66611 1.66604 1.66597 1.6659 1.66583 1.66575 1.66567 1.66559 1.66552 1.66544 1.66536 1.66528 1.66522 1.66514 1.66508 1.66502 1.66496 1.66491 1.66487 1.66483 1.6648 1.66478 1.66476 1.66475 1.66475 1.66475 1.66476 1.66477 1.66477 1.66474 1.66468 1.66454 1.66429 1.66383 1.66302 1.66165 1.65934 1.6555 1.64921 1.63899 1.62267 1.59716 1.55856 1.50267 1.42642 1.3297 1.21679 1.09591 0.976756 0.86756 0.773286 0.695519 0.633458 0.585041 0.547837 0.519517 0.498088 0.48192 0.46974 0.460561 0.453638 0.448404 0.444437 0.441417 0.43911 0.437337 0.43597 0.434908 0.43408 0.43343 0.432921 0.432517 0.432201 0.431952 0.431759 0.431609 0.431498 0.431417 0.431362 0.431327 0.431311 0.431308 0.431317 0.431334 0.431357 0.431382 0.431408 0.431432 0.431451 0.431464 0.43147 0.430692 0.43069 0.430684 0.430677 0.430667 0.430658 0.43065 0.430648 0.430653 0.430668 0.430697 0.430743 0.430809 0.430901 0.431023 0.431182 0.431385 0.431643 0.431968 0.432378 0.432894 0.433547 0.434373 0.435429 0.436781 0.438527 0.44079 0.443744 0.447614 0.452708 0.459431 0.46833 0.480121 0.495755 0.516457 0.5438 0.579719 0.62649 0.686526 0.761959 0.853806 0.960875 1.07872 1.19959 1.31388 1.41308 1.49228 1.551 1.59194 1.61921 1.63676 1.64781 1.65465 1.65883 1.66136 1.66287 1.66376 1.66428 1.66457 1.66472 1.66479 1.66482 1.66482 1.66482 1.66481 1.6648 1.66479 1.6648 1.6648 1.66482 1.66484 1.66487 1.6649 1.66494 1.66498 1.66504 1.66508 1.66515 1.6652 1.66527 1.66533 1.6654 1.66546 1.66553 1.66559 1.66565 1.66571 1.66577 1.66582 1.66588 1.66592 1.66597 1.66601 1.66605 1.66607 1.6661 1.66611 1.66613 1.66613 1.66613 1.66612 1.66611 1.66609 1.66607 1.66603 1.666 1.66596 1.66591 1.66586 1.66581 1.66575 1.66569 1.66562 1.66556 1.66548 1.66542 1.66535 1.66528 1.66521 1.66514 1.66507 1.66502 1.66495 1.6649 1.66485 1.66481 1.66476 1.66473 1.6647 1.66469 1.66467 1.66467 1.66466 1.66467 1.66468 1.6647 1.66471 1.66471 1.66468 1.66461 1.66446 1.66417 1.66365 1.66275 1.66122 1.65866 1.65442 1.64749 1.63629 1.6185 1.5909 1.5495 1.49024 1.41045 1.31077 1.1962 1.07534 0.95775 0.851117 0.759776 0.684838 0.62524 0.578836 0.543213 0.516102 0.495582 0.48009 0.46841 0.459598 0.452943 0.447904 0.444078 0.44116 0.438926 0.437205 0.435875 0.434837 0.434027 0.433387 0.432884 0.432484 0.432168 0.431918 0.431722 0.43157 0.431454 0.431367 0.431307 0.431265 0.431242 0.431231 0.431232 0.43124 0.431255 0.431271 0.431288 0.431304 0.431316 0.431324 0.431328 0.430557 0.430557 0.430556 0.430554 0.430552 0.43055 0.430551 0.430557 0.43057 0.430593 0.430629 0.430682 0.430754 0.430852 0.430978 0.431141 0.431346 0.431606 0.431929 0.432336 0.432844 0.433485 0.434293 0.435321 0.436633 0.438322 0.440506 0.44335 0.447067 0.451951 0.458386 0.466891 0.478145 0.493053 0.512781 0.538827 0.573047 0.617646 0.67501 0.747344 0.83592 0.940037 1.05594 1.17649 1.29235 1.39467 1.47775 1.54029 1.58447 1.6142 1.63349 1.64572 1.65332 1.65799 1.66083 1.66254 1.66355 1.66414 1.66446 1.66464 1.66472 1.66476 1.66476 1.66475 1.66473 1.66472 1.6647 1.66469 1.66469 1.6647 1.6647 1.66472 1.66474 1.66478 1.66481 1.66485 1.66489 1.66494 1.66498 1.66504 1.66509 1.66515 1.6652 1.66526 1.66531 1.66537 1.66542 1.66548 1.66552 1.66557 1.66561 1.66566 1.66568 1.66572 1.66574 1.66577 1.66578 1.66579 1.66579 1.66579 1.66578 1.66578 1.66575 1.66574 1.6657 1.66567 1.66563 1.6656 1.66555 1.6655 1.66544 1.66539 1.66533 1.66528 1.66521 1.66516 1.66509 1.66503 1.66497 1.66492 1.66486 1.66481 1.66476 1.66472 1.66467 1.66464 1.66461 1.66459 1.66457 1.66456 1.66456 1.66456 1.66457 1.66459 1.66461 1.66463 1.66464 1.66464 1.66461 1.66453 1.66436 1.66403 1.66343 1.66241 1.66068 1.65781 1.65307 1.64536 1.63298 1.61343 1.58335 1.5387 1.4756 1.39195 1.28919 1.1731 1.05261 0.937007 0.83334 0.745268 0.673415 0.616473 0.572224 0.538285 0.51246 0.492906 0.478133 0.466983 0.458561 0.452192 0.44736 0.443686 0.440877 0.438722 0.437057 0.435766 0.434756 0.433964 0.433337 0.432841 0.432445 0.432131 0.43188 0.431682 0.431527 0.431407 0.431316 0.43125 0.431202 0.431172 0.431155 0.431148 0.431149 0.431155 0.431163 0.431173 0.431182 0.431189 0.431193 0.431194 0.430431 0.430433 0.430436 0.430439 0.430442 0.430448 0.430455 0.430469 0.430489 0.430519 0.430562 0.430621 0.430698 0.430801 0.430931 0.431097 0.431304 0.431563 0.431885 0.432287 0.432787 0.433414 0.434201 0.435199 0.436469 0.438098 0.440198 0.442925 0.446482 0.451144 0.457277 0.465369 0.476062 0.490211 0.508918 0.533606 0.566043 0.608352 0.662879 0.73188 0.816864 0.917617 1.03109 1.1509 1.26807 1.37352 1.46077 1.52759 1.57549 1.60812 1.62949 1.64313 1.65167 1.65695 1.66017 1.66212 1.66328 1.66396 1.66434 1.66454 1.66464 1.66468 1.66468 1.66467 1.66465 1.66463 1.6646 1.66459 1.66457 1.66457 1.66456 1.66457 1.66458 1.6646 1.66462 1.66466 1.66468 1.66472 1.66476 1.66481 1.66485 1.6649 1.66494 1.66499 1.66504 1.66509 1.66513 1.66518 1.66521 1.66526 1.66529 1.66533 1.66535 1.66539 1.6654 1.66543 1.66543 1.66545 1.66545 1.66545 1.66544 1.66543 1.66541 1.66539 1.66537 1.66534 1.6653 1.66527 1.66523 1.66519 1.66514 1.66509 1.66504 1.66499 1.66493 1.66489 1.66483 1.66478 1.66473 1.66468 1.66464 1.6646 1.66455 1.66452 1.66449 1.66447 1.66445 1.66444 1.66443 1.66444 1.66444 1.66446 1.66447 1.6645 1.66452 1.66455 1.66457 1.66457 1.66453 1.66444 1.66423 1.66385 1.66316 1.66199 1.66002 1.65675 1.6514 1.64275 1.62893 1.60728 1.57428 1.52589 1.45851 1.37071 1.26486 1.14752 1.02783 0.914692 0.814403 0.729917 0.661382 0.607259 0.565282 0.533112 0.508633 0.49009 0.476069 0.465475 0.457461 0.451392 0.446779 0.443264 0.44057 0.438498 0.436893 0.435644 0.434664 0.433892 0.433279 0.432791 0.4324 0.432088 0.431838 0.431639 0.431481 0.431358 0.431262 0.431191 0.431139 0.431103 0.431079 0.431066 0.431059 0.431059 0.43106 0.431064 0.431067 0.431069 0.431069 0.431069 0.430314 0.430318 0.430323 0.430331 0.430339 0.43035 0.430364 0.430384 0.43041 0.430446 0.430494 0.430559 0.430641 0.430748 0.430881 0.43105 0.431258 0.431517 0.431836 0.432232 0.432722 0.433334 0.434099 0.435066 0.43629 0.437856 0.439868 0.442474 0.445863 0.450297 0.456116 0.463781 0.473895 0.48726 0.504914 0.528198 0.558789 0.598718 0.650273 0.715742 0.796839 0.893816 1.00436 1.12289 1.24099 1.34945 1.44107 1.5126 1.56475 1.60075 1.6246 1.63996 1.64963 1.65565 1.65935 1.66159 1.66294 1.66373 1.66418 1.66443 1.66455 1.6646 1.6646 1.66459 1.66456 1.66453 1.6645 1.66447 1.66445 1.66444 1.66442 1.66442 1.66442 1.66443 1.66444 1.66446 1.66448 1.66451 1.66453 1.66457 1.6646 1.66464 1.66467 1.66471 1.66475 1.66479 1.66483 1.66487 1.6649 1.66494 1.66496 1.665 1.66502 1.66504 1.66506 1.66508 1.66508 1.66509 1.66509 1.66509 1.66508 1.66508 1.66506 1.66505 1.66502 1.665 1.66497 1.66494 1.6649 1.66486 1.66482 1.66478 1.66474 1.6647 1.66465 1.66461 1.66456 1.66452 1.66448 1.66445 1.66441 1.66438 1.66435 1.66433 1.66431 1.6643 1.66429 1.66429 1.66429 1.6643 1.66432 1.66435 1.66437 1.66441 1.66444 1.66447 1.66449 1.66449 1.66444 1.66432 1.66407 1.66362 1.66282 1.66146 1.65918 1.65544 1.64934 1.63953 1.62398 1.59983 1.56343 1.51077 1.43868 1.34655 1.23774 1.11954 1.00118 0.891009 0.794504 0.713897 0.648878 0.597707 0.558092 0.527752 0.504666 0.487166 0.473921 0.463901 0.456311 0.450551 0.446166 0.442816 0.440242 0.438258 0.436715 0.43551 0.434562 0.433812 0.433213 0.432735 0.43235 0.432042 0.431792 0.431593 0.431433 0.431307 0.431208 0.431133 0.431075 0.431034 0.431005 0.430986 0.430973 0.430967 0.430962 0.43096 0.430958 0.430956 0.430954 0.430952 0.430205 0.43021 0.430219 0.430229 0.430242 0.430258 0.430277 0.430302 0.430333 0.430375 0.430428 0.430497 0.430584 0.430694 0.43083 0.431 0.431208 0.431465 0.431781 0.43217 0.43265 0.433246 0.433988 0.43492 0.436098 0.437598 0.43952 0.442 0.445218 0.449416 0.454915 0.462144 0.471667 0.484233 0.500813 0.522665 0.551368 0.588856 0.63734 0.699115 0.776064 0.868872 0.975953 1.09261 1.2111 1.32231 1.41837 1.49499 1.55191 1.59184 1.61862 1.63604 1.64711 1.65404 1.65831 1.66093 1.66251 1.66345 1.66399 1.66429 1.66444 1.66451 1.66452 1.6645 1.66447 1.66443 1.66439 1.66436 1.66433 1.6643 1.66428 1.66427 1.66425 1.66425 1.66425 1.66426 1.66427 1.66429 1.6643 1.66433 1.66435 1.66438 1.6644 1.66443 1.66446 1.66449 1.66452 1.66455 1.66458 1.66461 1.66463 1.66466 1.66467 1.6647 1.66471 1.66472 1.66473 1.66474 1.66473 1.66474 1.66473 1.66472 1.66471 1.66469 1.66467 1.66465 1.66462 1.6646 1.66457 1.66454 1.6645 1.66447 1.66443 1.6644 1.66436 1.66433 1.66429 1.66426 1.66423 1.6642 1.66418 1.66416 1.66414 1.66413 1.66412 1.66412 1.66412 1.66413 1.66415 1.66417 1.6642 1.66423 1.66427 1.66431 1.66435 1.66439 1.6644 1.66439 1.66433 1.66418 1.66388 1.66333 1.66238 1.66079 1.65813 1.6538 1.64678 1.63556 1.61793 1.59082 1.55047 1.49302 1.41585 1.31932 1.20782 1.0893 0.972873 0.866193 0.773863 0.697392 0.636048 0.587928 0.550737 0.522269 0.500602 0.484167 0.471714 0.46228 0.455121 0.449679 0.445526 0.442346 0.439896 0.438001 0.436523 0.435366 0.43445 0.433724 0.433141 0.432674 0.432296 0.431991 0.431743 0.431544 0.431382 0.431254 0.431152 0.431073 0.431012 0.430966 0.430932 0.430908 0.430891 0.430879 0.43087 0.430863 0.430857 0.430851 0.430846 0.430843 0.430104 0.430111 0.430121 0.430135 0.430151 0.430171 0.430195 0.430224 0.43026 0.430306 0.430363 0.430436 0.430526 0.430638 0.430776 0.430947 0.431155 0.43141 0.431721 0.432103 0.432571 0.43315 0.433867 0.434765 0.435894 0.437327 0.439155 0.441508 0.444552 0.448512 0.453687 0.460476 0.469402 0.481163 0.49666 0.517068 0.543865 0.578877 0.624228 0.682188 0.754774 0.843052 0.946134 1.06025 1.17848 1.292 1.39243 1.47443 1.53665 1.58108 1.61132 1.63121 1.64397 1.65201 1.65702 1.6601 1.66197 1.6631 1.66375 1.66412 1.66431 1.6644 1.66442 1.66441 1.66437 1.66433 1.66429 1.66424 1.6642 1.66417 1.66413 1.66411 1.66408 1.66407 1.66406 1.66406 1.66405 1.66406 1.66407 1.66408 1.66409 1.66411 1.66413 1.66415 1.66417 1.66419 1.66421 1.66424 1.66425 1.66428 1.66429 1.66432 1.66433 1.66435 1.66435 1.66437 1.66437 1.66438 1.66437 1.66437 1.66436 1.66436 1.66435 1.66434 1.66432 1.6643 1.66428 1.66426 1.66423 1.66421 1.66418 1.66415 1.66412 1.6641 1.66407 1.66405 1.66402 1.664 1.66397 1.66396 1.66394 1.66394 1.66393 1.66393 1.66393 1.66394 1.66395 1.66398 1.664 1.66404 1.66407 1.66412 1.66416 1.66421 1.66425 1.66429 1.6643 1.66429 1.6642 1.66401 1.66363 1.66298 1.66184 1.65994 1.65682 1.65175 1.64359 1.63067 1.61054 1.57995 1.53506 1.47231 1.38977 1.28891 1.17518 1.057 0.943166 0.84051 0.752712 0.68059 0.62304 0.578033 0.543298 0.516721 0.496486 0.481124 0.469469 0.460626 0.453904 0.448783 0.444865 0.441858 0.439535 0.437732 0.436321 0.435211 0.43433 0.433628 0.433062 0.432607 0.432236 0.431936 0.43169 0.431492 0.43133 0.431201 0.431096 0.431014 0.43095 0.4309 0.430862 0.430834 0.430812 0.430795 0.430782 0.430771 0.430762 0.430754 0.430746 0.430742 0.430012 0.430019 0.430031 0.430047 0.430067 0.43009 0.430117 0.43015 0.43019 0.430239 0.4303 0.430376 0.430468 0.430582 0.430722 0.430892 0.431099 0.431351 0.431657 0.43203 0.432486 0.433047 0.433738 0.4346 0.43568 0.437044 0.438779 0.441003 0.443871 0.447593 0.452443 0.458792 0.467123 0.47808 0.492498 0.511466 0.536358 0.568889 0.611079 0.665153 0.73321 0.816644 0.915213 1.02608 1.14328 1.25848 1.36302 1.45056 1.51857 1.56811 1.6024 1.62525 1.64005 1.64948 1.65538 1.65905 1.66129 1.66265 1.66345 1.66391 1.66415 1.66427 1.66431 1.66431 1.66427 1.66423 1.66418 1.66413 1.66407 1.66403 1.66398 1.66395 1.66392 1.66389 1.66387 1.66386 1.66384 1.66384 1.66383 1.66384 1.66384 1.66385 1.66385 1.66387 1.66387 1.66389 1.6639 1.66392 1.66393 1.66395 1.66396 1.66397 1.66398 1.66399 1.664 1.66401 1.66401 1.66401 1.66401 1.66401 1.664 1.664 1.66399 1.66398 1.66396 1.66395 1.66393 1.66392 1.66389 1.66388 1.66385 1.66384 1.66381 1.6638 1.66378 1.66376 1.66374 1.66373 1.66372 1.66372 1.66371 1.66371 1.66371 1.66373 1.66374 1.66376 1.66378 1.66382 1.66385 1.6639 1.66394 1.664 1.66405 1.66411 1.66415 1.66419 1.6642 1.66416 1.66404 1.6638 1.66333 1.66252 1.66115 1.65887 1.65516 1.64918 1.63963 1.62463 1.60151 1.56684 1.51682 1.44828 1.36023 1.25532 1.13999 1.02291 0.912372 0.814249 0.731291 0.66368 0.609996 0.568128 0.535856 0.511168 0.492361 0.478068 0.46721 0.458958 0.452671 0.447872 0.444191 0.441357 0.439161 0.437451 0.436108 0.435048 0.434202 0.433525 0.432978 0.432535 0.432172 0.431877 0.431635 0.431438 0.431276 0.431146 0.43104 0.430956 0.430888 0.430836 0.430794 0.430762 0.430736 0.430716 0.4307 0.430686 0.430673 0.430663 0.430654 0.430648 0.429926 0.429935 0.429948 0.429966 0.429988 0.430014 0.430044 0.43008 0.430123 0.430175 0.430238 0.430316 0.43041 0.430526 0.430666 0