# vtk DataFile Version 3.0
Immiscible displacement
ASCII
DATASET RECTILINEAR_GRID
DIMENSIONS 200 200 1
X_COORDINATES 200 double
1 2 3 4 5 6 7 8 9 10 11 12 13 14 15 16 17 18 19 20 21 22 23 24 25 26 27 28 29 30 31 32 33 34 35 36 37 38 39 40 41 42 43 44 45 46 47 48 49 50 51 52 53 54 55 56 57 58 59 60 61 62 63 64 65 66 67 68 69 70 71 72 73 74 75 76 77 78 79 80 81 82 83 84 85 86 87 88 89 90 91 92 93 94 95 96 97 98 99 100 101 102 103 104 105 106 107 108 109 110 111 112 113 114 115 116 117 118 119 120 121 122 123 124 125 126 127 128 129 130 131 132 133 134 135 136 137 138 139 140 141 142 143 144 145 146 147 148 149 150 151 152 153 154 155 156 157 158 159 160 161 162 163 164 165 166 167 168 169 170 171 172 173 174 175 176 177 178 179 180 181 182 183 184 185 186 187 188 189 190 191 192 193 194 195 196 197 198 199 200 
Y_COORDINATES 200 double
1 2 3 4 5 6 7 8 9 10 11 12 13 14 15 16 17 18 19 20 21 22 23 24 25 26 27 28 29 30 31 32 33 34 35 36 37 38 39 40 41 42 43 44 45 46 47 48 49 50 51 52 53 54 55 56 57 58 59 60 61 62 63 64 65 66 67 68 69 70 71 72 73 74 75 76 77 78 79 80 81 82 83 84 85 86 87 88 89 90 91 92 93 94 95 96 97 98 99 100 101 102 103 104 105 106 107 108 109 110 111 112 113 114 115 116 117 118 119 120 121 122 123 124 125 126 127 128 129 130 131 132 133 134 135 136 137 138 139 140 141 142 143 144 145 146 147 148 149 150 151 152 153 154 155 156 157 158 159 160 161 162 163 164 165 166 167 168 169 170 171 172 173 174 175 176 177 178 179 180 181 182 183 184 185 186 187 188 189 190 191 192 193 194 195 196 197 198 199 200 
Z_COORDINATES 1 double
0
POINT_DATA 40000
SCALARS rho double 1
LOOKUP_TABLE default
0.420283 0.420665 0.421305 0.422157 0.423208 0.424439 0.425844 0.427396 0.429083 0.430869 0.43274 0.434652 0.436596 0.438529 0.440447 0.442313 0.444135 0.445891 0.447602 0.44927 0.450939 0.452643 0.454464 0.456484 0.458843 0.461703 0.465293 0.469904 0.475921 0.483842 0.494315 0.508178 0.526502 0.550648 0.582276 0.623364 0.676049 0.742365 0.823595 0.919458 1.02707 1.14057 1.25174 1.35224 1.4359 1.50042 1.54685 1.57841 1.59873 1.61119 1.61828 1.6219 1.62321 1.62311 1.62207 1.62053 1.61864 1.61666 1.61463 1.61271 1.61091 1.60934 1.608 1.60698 1.60626 1.60591 1.60589 1.60628 1.607 1.60811 1.60954 1.61134 1.61342 1.61581 1.61844 1.62133 1.6244 1.62766 1.63104 1.63456 1.63814 1.6418 1.64548 1.64916 1.65282 1.65643 1.65995 1.66338 1.66666 1.66979 1.67272 1.67545 1.67792 1.68013 1.68204 1.68365 1.68491 1.68582 1.68637 1.68656 1.68637 1.68582 1.68491 1.68365 1.68204 1.68013 1.67792 1.67545 1.67272 1.66979 1.66666 1.66338 1.65995 1.65643 1.65282 1.64916 1.64548 1.6418 1.63814 1.63456 1.63104 1.62766 1.6244 1.62133 1.61844 1.61581 1.61342 1.61134 1.60954 1.60811 1.607 1.60628 1.60589 1.60591 1.60626 1.60698 1.608 1.60934 1.61091 1.61271 1.61463 1.61666 1.61864 1.62053 1.62207 1.62311 1.62321 1.6219 1.61828 1.61119 1.59873 1.57841 1.54685 1.50042 1.4359 1.35224 1.25174 1.14057 1.02707 0.919458 0.823595 0.742364 0.676049 0.623364 0.582276 0.550648 0.526503 0.508179 0.494316 0.483842 0.47592 0.469902 0.46529 0.461697 0.458836 0.456474 0.454452 0.45263 0.450927 0.449261 0.4476 0.445898 0.444157 0.442352 0.440508 0.438614 0.436707 0.434786 0.432896 0.43104 0.429263 0.427572 0.426007 0.424572 0.4233 0.422191 0.421266 0.420524 0.419981 0.419662 0.420579 0.420914 0.421521 0.422351 0.423393 0.424613 0.426015 0.427555 0.429238 0.431009 0.432872 0.434765 0.436697 0.438606 0.440508 0.442347 0.444151 0.445878 0.447569 0.449208 0.450857 0.452533 0.454334 0.456328 0.458666 0.461498 0.465065 0.469645 0.475629 0.483509 0.493932 0.507733 0.525977 0.550025 0.581527 0.622469 0.674975 0.741104 0.822143 0.917863 1.0254 1.13896 1.25031 1.35109 1.43507 1.49991 1.54658 1.57835 1.5988 1.61137 1.61852 1.6222 1.62354 1.6235 1.62248 1.62098 1.6191 1.61715 1.61512 1.61322 1.6114 1.60985 1.60848 1.60746 1.6067 1.60633 1.60627 1.60662 1.60728 1.60835 1.60972 1.61147 1.61349 1.61583 1.6184 1.62124 1.62425 1.62746 1.63079 1.63426 1.6378 1.64142 1.64504 1.6487 1.65231 1.65589 1.65937 1.66277 1.66602 1.66912 1.67202 1.67472 1.67717 1.67936 1.68125 1.68284 1.68408 1.685 1.68554 1.68573 1.68554 1.685 1.68408 1.68284 1.68125 1.67936 1.67717 1.67472 1.67202 1.66912 1.66602 1.66277 1.65937 1.65589 1.65231 1.6487 1.64504 1.64142 1.6378 1.63426 1.63079 1.62746 1.62425 1.62124 1.6184 1.61583 1.61349 1.61147 1.60972 1.60835 1.60728 1.60662 1.60627 1.60633 1.6067 1.60746 1.60848 1.60985 1.6114 1.61322 1.61512 1.61715 1.6191 1.62098 1.62248 1.6235 1.62354 1.6222 1.61852 1.61137 1.5988 1.57835 1.54658 1.49991 1.43507 1.35109 1.25031 1.13896 1.0254 0.917863 0.822143 0.741104 0.674976 0.622469 0.581528 0.550025 0.525978 0.507734 0.493932 0.483509 0.475628 0.469642 0.465061 0.461492 0.458658 0.456317 0.454322 0.45252 0.450846 0.4492 0.447569 0.445887 0.444176 0.44239 0.440573 0.438694 0.43681 0.4349 0.433028 0.431177 0.429413 0.427722 0.426164 0.424727 0.423458 0.422348 0.42143 0.420697 0.420177 0.419891 0.421008 0.421304 0.421872 0.422674 0.423696 0.424903 0.426293 0.427822 0.429492 0.431247 0.43309 0.43496 0.436866 0.438745 0.440613 0.442416 0.444182 0.445868 0.447519 0.449115 0.450722 0.452356 0.454115 0.456066 0.458362 0.461149 0.464667 0.469192 0.475113 0.482916 0.493247 0.506931 0.525029 0.548891 0.580165 0.620825 0.673002 0.738765 0.81944 0.914858 1.02224 1.13586 1.24752 1.34881 1.43339 1.49881 1.54598 1.57812 1.59885 1.61162 1.61891 1.62269 1.62412 1.62413 1.62317 1.62171 1.61987 1.61795 1.61594 1.61405 1.61224 1.61067 1.60928 1.60822 1.60742 1.607 1.60687 1.60714 1.60773 1.60871 1.60999 1.61164 1.61357 1.61581 1.61828 1.62102 1.62394 1.62706 1.63031 1.63369 1.63715 1.64069 1.64425 1.64783 1.65138 1.65489 1.65832 1.66166 1.66485 1.6679 1.67076 1.67341 1.67582 1.67797 1.67983 1.68139 1.68261 1.68351 1.68404 1.68423 1.68404 1.68351 1.68261 1.68139 1.67983 1.67797 1.67582 1.67341 1.67076 1.6679 1.66485 1.66166 1.65832 1.65489 1.65138 1.64783 1.64425 1.64069 1.63715 1.63369 1.63031 1.62706 1.62394 1.62102 1.61828 1.61581 1.61357 1.61164 1.60999 1.60871 1.60773 1.60714 1.60687 1.607 1.60742 1.60822 1.60928 1.61067 1.61224 1.61405 1.61594 1.61795 1.61987 1.62171 1.62317 1.62413 1.62412 1.62269 1.61891 1.61162 1.59885 1.57812 1.54598 1.49881 1.43339 1.34881 1.24752 1.13586 1.02224 0.914857 0.81944 0.738765 0.673002 0.620825 0.580165 0.548892 0.52503 0.506932 0.493247 0.482916 0.475112 0.469189 0.464663 0.461142 0.458354 0.456056 0.454104 0.452344 0.450713 0.44911 0.447522 0.445882 0.444212 0.442465 0.440684 0.438838 0.436983 0.435098 0.433246 0.431411 0.429658 0.427974 0.426419 0.424984 0.423716 0.422608 0.421696 0.420978 0.420482 0.420222 0.421485 0.421757 0.422294 0.423069 0.424071 0.425261 0.426639 0.428154 0.42981 0.431545 0.433367 0.43521 0.437085 0.438927 0.440756 0.442513 0.444232 0.445867 0.447466 0.449008 0.450561 0.452139 0.453843 0.455737 0.457975 0.460698 0.464149 0.468597 0.47443 0.482126 0.492326 0.505846 0.523739 0.547341 0.578289 0.61855 0.670255 0.735488 0.815626 0.910585 1.0177 1.13136 1.24341 1.3454 1.43082 1.49708 1.54497 1.57767 1.59881 1.61187 1.61937 1.6233 1.62483 1.62493 1.62404 1.62263 1.62085 1.61896 1.61697 1.61509 1.61328 1.61169 1.61027 1.60917 1.60831 1.60781 1.6076 1.60777 1.60825 1.60912 1.61028 1.61181 1.6136 1.61572 1.61807 1.62068 1.62347 1.62648 1.62961 1.63289 1.63624 1.63968 1.64313 1.64663 1.65008 1.65351 1.65686 1.66012 1.66324 1.66623 1.66902 1.67161 1.67396 1.67607 1.67788 1.67941 1.6806 1.68147 1.68199 1.68217 1.68199 1.68147 1.6806 1.67941 1.67788 1.67607 1.67396 1.67161 1.66902 1.66623 1.66324 1.66012 1.65686 1.65351 1.65008 1.64663 1.64313 1.63968 1.63624 1.63289 1.62961 1.62648 1.62347 1.62068 1.61807 1.61572 1.6136 1.61181 1.61028 1.60912 1.60825 1.60777 1.6076 1.60781 1.60831 1.60917 1.61027 1.61169 1.61328 1.61509 1.61697 1.61896 1.62085 1.62263 1.62404 1.62493 1.62483 1.6233 1.61937 1.61187 1.59881 1.57767 1.54497 1.49708 1.43082 1.3454 1.24341 1.13136 1.0177 0.910585 0.815626 0.735488 0.670255 0.618551 0.57829 0.547342 0.52374 0.505847 0.492326 0.482125 0.474429 0.468594 0.464145 0.460691 0.457966 0.455726 0.453832 0.452128 0.450554 0.449006 0.447474 0.445886 0.444268 0.442568 0.440833 0.439026 0.437207 0.435351 0.433523 0.431705 0.429964 0.428287 0.426736 0.425301 0.424033 0.422927 0.422021 0.421315 0.420836 0.420591 0.421967 0.422224 0.42274 0.423494 0.424479 0.425655 0.42702 0.428523 0.430163 0.431881 0.43368 0.435495 0.437336 0.43914 0.440925 0.442634 0.4443 0.445878 0.447419 0.448899 0.45039 0.451903 0.453542 0.455368 0.457535 0.460182 0.46355 0.467902 0.473625 0.481187 0.491223 0.504538 0.522171 0.545444 0.575981 0.615732 0.666829 0.731375 0.810804 0.905138 1.01186 1.12552 1.23802 1.34084 1.42733 1.49467 1.5435 1.57694 1.59862 1.61206 1.61983 1.62395 1.62563 1.62583 1.62503 1.62369 1.62196 1.6201 1.61814 1.61627 1.61445 1.61284 1.61139 1.61023 1.6093 1.60871 1.6084 1.60845 1.60881 1.60954 1.61056 1.61194 1.61358 1.61555 1.61775 1.62021 1.62286 1.62572 1.62871 1.63186 1.63508 1.6384 1.64174 1.64512 1.64847 1.6518 1.65505 1.65821 1.66125 1.66415 1.66686 1.66938 1.67166 1.67371 1.67547 1.67695 1.67811 1.67896 1.67946 1.67964 1.67946 1.67896 1.67811 1.67695 1.67547 1.67371 1.67166 1.66938 1.66686 1.66415 1.66125 1.65821 1.65505 1.6518 1.64847 1.64512 1.64174 1.6384 1.63508 1.63186 1.62871 1.62572 1.62286 1.62021 1.61775 1.61555 1.61358 1.61194 1.61056 1.60954 1.60881 1.60845 1.6084 1.60871 1.6093 1.61023 1.61139 1.61284 1.61445 1.61627 1.61814 1.6201 1.62196 1.62369 1.62503 1.62583 1.62563 1.62395 1.61983 1.61206 1.59862 1.57694 1.5435 1.49467 1.42733 1.34084 1.23802 1.12552 1.01186 0.905138 0.810804 0.731375 0.666829 0.615732 0.575981 0.545445 0.522172 0.504538 0.491224 0.481186 0.473623 0.467898 0.463545 0.460174 0.457526 0.455357 0.453532 0.451894 0.450386 0.448901 0.447431 0.445904 0.444343 0.442696 0.44101 0.439247 0.437465 0.435639 0.433835 0.432035 0.430305 0.428634 0.427085 0.425649 0.42438 0.423273 0.42237 0.42167 0.421201 0.420964 0.42243 0.422679 0.423182 0.423922 0.424894 0.42606 0.427414 0.428906 0.430533 0.432234 0.434012 0.4358 0.437609 0.439373 0.441114 0.442774 0.444385 0.445905 0.447384 0.448798 0.450222 0.451665 0.453232 0.454981 0.457068 0.459628 0.4629 0.467142 0.472735 0.48014 0.489982 0.503052 0.520376 0.543256 0.573298 0.612434 0.662792 0.726494 0.80504 0.898573 1.00477 1.11833 1.2313 1.3351 1.42286 1.4915 1.5415 1.57586 1.59822 1.61214 1.62025 1.62461 1.62646 1.6268 1.62609 1.62483 1.62316 1.62134 1.61941 1.61755 1.61572 1.61408 1.61259 1.61136 1.61035 1.60966 1.60923 1.60916 1.60938 1.60995 1.61082 1.61203 1.61351 1.6153 1.61733 1.61962 1.6221 1.6248 1.62764 1.63063 1.63371 1.63689 1.6401 1.64335 1.64658 1.64979 1.65292 1.65598 1.65891 1.66171 1.66433 1.66677 1.66898 1.67095 1.67265 1.67408 1.6752 1.67602 1.6765 1.67667 1.6765 1.67602 1.6752 1.67408 1.67265 1.67095 1.66898 1.66677 1.66433 1.66171 1.65891 1.65598 1.65292 1.64979 1.64658 1.64335 1.6401 1.63689 1.63371 1.63063 1.62764 1.6248 1.6221 1.61962 1.61733 1.6153 1.61351 1.61203 1.61082 1.60995 1.60938 1.60916 1.60923 1.60966 1.61035 1.61136 1.61259 1.61408 1.61572 1.61755 1.61941 1.62134 1.62316 1.62483 1.62609 1.6268 1.62646 1.62461 1.62025 1.61214 1.59822 1.57586 1.5415 1.4915 1.42286 1.3351 1.2313 1.11833 1.00477 0.898573 0.80504 0.726494 0.662793 0.612434 0.573299 0.543257 0.520377 0.503052 0.489982 0.480138 0.472733 0.467138 0.462894 0.45962 0.457059 0.45497 0.453222 0.451657 0.450219 0.448803 0.4474 0.445936 0.444435 0.442844 0.441208 0.439488 0.437744 0.435948 0.434167 0.432383 0.430663 0.428996 0.427446 0.426008 0.424735 0.423625 0.422721 0.422023 0.421557 0.421323 0.422862 0.423106 0.423602 0.424334 0.425299 0.426457 0.427805 0.429289 0.430905 0.432592 0.43435 0.436114 0.437892 0.439621 0.441319 0.44293 0.444487 0.445948 0.447364 0.448712 0.450066 0.451435 0.452925 0.454594 0.456594 0.459059 0.462224 0.466342 0.471789 0.479015 0.488635 0.501424 0.518393 0.540818 0.570285 0.608702 0.658192 0.72089 0.798371 0.890914 0.996406 1.10978 1.22322 1.32809 1.41731 1.4875 1.53889 1.57436 1.59756 1.61207 1.6206 1.62524 1.62731 1.62779 1.6272 1.62602 1.62441 1.62264 1.62074 1.61888 1.61705 1.61538 1.61384 1.61254 1.61144 1.61064 1.6101 1.60988 1.60994 1.61035 1.61105 1.61207 1.61337 1.61497 1.61681 1.61892 1.62123 1.62375 1.62641 1.62924 1.63216 1.63518 1.63824 1.64134 1.64443 1.64751 1.65052 1.65345 1.65627 1.65896 1.66148 1.66382 1.66594 1.66784 1.66947 1.67085 1.67192 1.6727 1.67317 1.67333 1.67317 1.6727 1.67192 1.67085 1.66947 1.66784 1.66594 1.66382 1.66148 1.65896 1.65627 1.65345 1.65052 1.64751 1.64443 1.64134 1.63824 1.63518 1.63216 1.62924 1.62641 1.62375 1.62123 1.61892 1.61681 1.61497 1.61337 1.61207 1.61105 1.61035 1.60994 1.60988 1.6101 1.61064 1.61144 1.61254 1.61384 1.61538 1.61705 1.61888 1.62074 1.62264 1.62441 1.62602 1.6272 1.62779 1.62731 1.62524 1.6206 1.61207 1.59756 1.57436 1.53889 1.4875 1.41731 1.32809 1.22322 1.10978 0.996406 0.890914 0.798371 0.72089 0.658192 0.608703 0.570286 0.540819 0.518394 0.501425 0.488635 0.479013 0.471787 0.466337 0.462218 0.45905 0.456584 0.454583 0.452916 0.451429 0.450065 0.44872 0.447385 0.445985 0.444544 0.443008 0.44142 0.439743 0.438034 0.436267 0.434506 0.432736 0.431023 0.429359 0.427806 0.426363 0.425083 0.423968 0.42306 0.422359 0.421893 0.421659 0.423257 0.423499 0.423992 0.42472 0.425681 0.426838 0.428181 0.429661 0.431269 0.432945 0.434687 0.43643 0.438181 0.439876 0.441534 0.443099 0.444604 0.446009 0.447362 0.448645 0.449928 0.451224 0.452635 0.454219 0.456128 0.458492 0.461542 0.465525 0.47081 0.477837 0.48721 0.499685 0.516252 0.538162 0.566975 0.60457 0.653059 0.714591 0.790815 0.882163 0.986763 1.09981 1.21368 1.31971 1.41058 1.48256 1.53558 1.57238 1.59658 1.6118 1.62083 1.62582 1.62813 1.62878 1.62833 1.62724 1.6257 1.62398 1.62211 1.62026 1.61841 1.61671 1.61512 1.61375 1.61256 1.61165 1.61097 1.61061 1.61051 1.61074 1.61125 1.61208 1.61318 1.61458 1.61623 1.61813 1.62024 1.62257 1.62505 1.62769 1.63043 1.63328 1.63618 1.63913 1.64207 1.645 1.64787 1.65068 1.65337 1.65594 1.65835 1.66059 1.66262 1.66443 1.66599 1.6673 1.66833 1.66908 1.66952 1.66968 1.66952 1.66908 1.66833 1.6673 1.66599 1.66443 1.66262 1.66059 1.65835 1.65594 1.65337 1.65068 1.64787 1.645 1.64207 1.63913 1.63618 1.63328 1.63043 1.62769 1.62505 1.62257 1.62024 1.61813 1.61623 1.61458 1.61318 1.61208 1.61125 1.61074 1.61051 1.61061 1.61097 1.61165 1.61256 1.61375 1.61512 1.61671 1.61841 1.62026 1.62211 1.62398 1.6257 1.62724 1.62833 1.62878 1.62813 1.62582 1.62083 1.6118 1.59658 1.57238 1.53558 1.48256 1.41058 1.31971 1.21368 1.09981 0.986763 0.882163 0.790816 0.714591 0.65306 0.604571 0.566976 0.538163 0.516253 0.499685 0.48721 0.477835 0.470807 0.465519 0.461535 0.458482 0.456118 0.454209 0.452626 0.451219 0.44993 0.448656 0.447388 0.446052 0.444668 0.443185 0.441643 0.440006 0.438329 0.436588 0.434844 0.433086 0.431377 0.429713 0.428155 0.426705 0.425417 0.424293 0.423377 0.422672 0.422202 0.421967 0.423611 0.423853 0.424345 0.425074 0.426036 0.427192 0.428536 0.430014 0.431618 0.433287 0.435017 0.436742 0.438469 0.440135 0.441756 0.44328 0.444736 0.446088 0.447382 0.448601 0.449815 0.451038 0.452369 0.453868 0.455682 0.457939 0.460867 0.464705 0.469816 0.476626 0.485727 0.497854 0.513975 0.535311 0.563391 0.600061 0.647416 0.707612 0.782379 0.872307 0.975795 1.08835 1.20257 1.30981 1.40251 1.47653 1.53146 1.56982 1.59521 1.61128 1.6209 1.6263 1.6289 1.62976 1.62945 1.62847 1.62702 1.62534 1.6235 1.62166 1.61981 1.61807 1.61643 1.61498 1.6137 1.61267 1.61186 1.61134 1.61107 1.61112 1.61144 1.61207 1.61296 1.61415 1.61558 1.61727 1.61917 1.62129 1.62357 1.62601 1.62857 1.63124 1.63396 1.63674 1.63952 1.64229 1.64502 1.64768 1.65024 1.65269 1.65498 1.65711 1.65903 1.66076 1.66224 1.66349 1.66446 1.66518 1.6656 1.66575 1.6656 1.66518 1.66446 1.66349 1.66224 1.66076 1.65903 1.65711 1.65498 1.65269 1.65024 1.64768 1.64502 1.64229 1.63952 1.63674 1.63396 1.63124 1.62857 1.62601 1.62357 1.62129 1.61917 1.61727 1.61558 1.61415 1.61296 1.61207 1.61144 1.61112 1.61107 1.61134 1.61186 1.61267 1.6137 1.61498 1.61643 1.61807 1.61981 1.62166 1.6235 1.62534 1.62702 1.62847 1.62945 1.62976 1.6289 1.6263 1.6209 1.61128 1.59521 1.56982 1.53146 1.47653 1.40251 1.30981 1.20257 1.08835 0.975795 0.872306 0.782379 0.707612 0.647416 0.600061 0.563392 0.535312 0.513976 0.497854 0.485726 0.476624 0.469812 0.464699 0.460859 0.45793 0.455671 0.453857 0.452361 0.451033 0.449818 0.448615 0.447411 0.446136 0.444806 0.443373 0.441873 0.440273 0.438624 0.436905 0.435175 0.433425 0.431718 0.430051 0.428486 0.427027 0.425728 0.424594 0.423669 0.422956 0.422481 0.422243 0.423923 0.424166 0.42466 0.425392 0.426357 0.427518 0.428864 0.430345 0.431948 0.433613 0.435334 0.437047 0.438753 0.440395 0.441984 0.443471 0.444883 0.446185 0.447423 0.448582 0.44973 0.450881 0.452134 0.453548 0.455265 0.457413 0.460212 0.463898 0.468821 0.475398 0.484203 0.49595 0.511582 0.532286 0.559554 0.595195 0.641279 0.699968 0.773064 0.861328 0.963456 1.07531 1.18977 1.29825 1.39294 1.46925 1.52638 1.56657 1.59336 1.61044 1.62077 1.62666 1.6296 1.63069 1.63056 1.6297 1.62833 1.62671 1.62491 1.62308 1.62122 1.61945 1.61776 1.61623 1.61486 1.61371 1.61276 1.61208 1.61164 1.6115 1.61161 1.61203 1.61271 1.61367 1.61488 1.61635 1.61803 1.61993 1.622 1.62424 1.62659 1.62907 1.6316 1.6342 1.63681 1.63942 1.64199 1.64451 1.64693 1.64924 1.65141 1.65342 1.65525 1.65688 1.65829 1.65947 1.66039 1.66107 1.66147 1.66161 1.66147 1.66107 1.66039 1.65947 1.65829 1.65688 1.65525 1.65342 1.65141 1.64924 1.64693 1.64451 1.64199 1.63942 1.63681 1.6342 1.6316 1.62907 1.62659 1.62424 1.622 1.61993 1.61803 1.61635 1.61488 1.61367 1.61271 1.61203 1.61161 1.6115 1.61164 1.61208 1.61276 1.61371 1.61486 1.61623 1.61776 1.61945 1.62122 1.62308 1.62491 1.62671 1.62833 1.6297 1.63056 1.63069 1.6296 1.62666 1.62077 1.61044 1.59336 1.56657 1.52638 1.46925 1.39294 1.29825 1.18977 1.0753 0.963456 0.861328 0.773064 0.699968 0.64128 0.595196 0.559555 0.532287 0.511583 0.49595 0.484202 0.475396 0.468817 0.463891 0.460204 0.457403 0.455254 0.453537 0.452126 0.450878 0.449734 0.448599 0.447456 0.446237 0.444958 0.44357 0.442108 0.44054 0.438915 0.437214 0.435495 0.43375 0.432041 0.43037 0.428795 0.427325 0.426013 0.424867 0.423931 0.42321 0.422729 0.422488 0.424192 0.424437 0.424935 0.425672 0.426642 0.42781 0.429162 0.430648 0.432254 0.43392 0.435635 0.43734 0.439031 0.440653 0.442215 0.44367 0.445042 0.446301 0.447487 0.448591 0.449675 0.450759 0.451935 0.453264 0.454884 0.45692 0.459586 0.463112 0.467837 0.474164 0.48265 0.493987 0.509088 0.529102 0.555482 0.58999 0.634668 0.691671 0.762875 0.849214 0.949701 1.06059 1.17514 1.28484 1.38167 1.46054 1.52017 1.56249 1.59094 1.60921 1.62039 1.62685 1.6302 1.63157 1.63163 1.63091 1.62964 1.62809 1.62633 1.62451 1.62265 1.62085 1.6191 1.6175 1.61603 1.61476 1.61367 1.61284 1.61222 1.61188 1.61179 1.61199 1.61245 1.61318 1.61416 1.61539 1.61684 1.61851 1.62036 1.62238 1.62453 1.6268 1.62914 1.63155 1.63398 1.63642 1.63883 1.64119 1.64346 1.64564 1.64768 1.64958 1.65131 1.65284 1.65417 1.65528 1.65615 1.65679 1.65717 1.6573 1.65717 1.65679 1.65615 1.65528 1.65417 1.65284 1.65131 1.64958 1.64768 1.64564 1.64346 1.64119 1.63883 1.63642 1.63398 1.63155 1.62914 1.6268 1.62453 1.62238 1.62036 1.61851 1.61684 1.61539 1.61416 1.61318 1.61245 1.61199 1.61179 1.61188 1.61222 1.61284 1.61367 1.61476 1.61603 1.6175 1.6191 1.62085 1.62265 1.62451 1.62633 1.62809 1.62964 1.63091 1.63163 1.63157 1.6302 1.62685 1.62039 1.60921 1.59094 1.56249 1.52017 1.46054 1.38167 1.28484 1.17514 1.06059 0.949701 0.849214 0.762875 0.691672 0.634668 0.589991 0.555483 0.529103 0.509089 0.493987 0.482649 0.474161 0.467832 0.463105 0.459578 0.45691 0.454872 0.453252 0.451926 0.450755 0.449681 0.448609 0.447523 0.446357 0.445122 0.443775 0.442345 0.440805 0.439199 0.437513 0.4358 0.434057 0.432344 0.430665 0.429078 0.427595 0.426269 0.42511 0.424161 0.423431 0.422943 0.422699 0.424419 0.424667 0.425169 0.425913 0.42689 0.428068 0.429428 0.430923 0.432534 0.434204 0.435919 0.43762 0.439301 0.440908 0.442447 0.443876 0.445214 0.446434 0.447574 0.448627 0.449653 0.450672 0.451775 0.45302 0.454544 0.456467 0.458997 0.462356 0.466872 0.472935 0.481082 0.491979 0.506508 0.525778 0.551194 0.584469 0.627604 0.682745 0.751828 0.835966 0.934503 1.04414 1.15855 1.2694 1.36847 1.45016 1.51264 1.55743 1.58781 1.60751 1.61968 1.62684 1.63066 1.63235 1.63265 1.63208 1.63093 1.62945 1.62774 1.62594 1.62407 1.62225 1.62046 1.61879 1.61722 1.61583 1.61461 1.61361 1.61282 1.61228 1.61199 1.61197 1.61219 1.61269 1.61343 1.61442 1.61563 1.61707 1.61868 1.62048 1.62241 1.62446 1.62661 1.62882 1.63107 1.63333 1.63557 1.63777 1.6399 1.64194 1.64385 1.64564 1.64725 1.6487 1.64995 1.65099 1.65181 1.65241 1.65276 1.65289 1.65276 1.65241 1.65181 1.65099 1.64995 1.6487 1.64725 1.64564 1.64385 1.64194 1.6399 1.63777 1.63557 1.63333 1.63107 1.62882 1.62661 1.62446 1.62241 1.62048 1.61868 1.61707 1.61563 1.61442 1.61343 1.61269 1.61219 1.61197 1.61199 1.61228 1.61282 1.61361 1.61461 1.61583 1.61722 1.61879 1.62046 1.62225 1.62407 1.62594 1.62774 1.62945 1.63093 1.63208 1.63265 1.63235 1.63066 1.62684 1.61968 1.60751 1.58781 1.55743 1.51264 1.45016 1.36847 1.2694 1.15855 1.04414 0.934503 0.835966 0.751828 0.682745 0.627605 0.58447 0.551195 0.525779 0.506509 0.491979 0.481081 0.472933 0.466867 0.462349 0.458988 0.456456 0.454532 0.453009 0.451766 0.450669 0.44966 0.448647 0.447612 0.446493 0.445298 0.443986 0.442584 0.441066 0.439475 0.437798 0.436088 0.434344 0.432623 0.430933 0.429333 0.427836 0.426494 0.425321 0.424359 0.423618 0.423123 0.422875 0.424603 0.424853 0.425361 0.426113 0.4271 0.428289 0.42966 0.431167 0.432787 0.434464 0.436182 0.437884 0.439559 0.441157 0.442679 0.444087 0.445397 0.446585 0.447684 0.448692 0.449664 0.450623 0.451655 0.452821 0.454248 0.456058 0.458449 0.461636 0.465934 0.47172 0.479507 0.489938 0.503856 0.522329 0.54671 0.578655 0.620117 0.67322 0.739954 0.821603 0.917853 1.02589 1.13988 1.25174 1.35312 1.43788 1.50355 1.55118 1.58383 1.60521 1.61858 1.62656 1.63094 1.63303 1.63359 1.63321 1.63218 1.63079 1.62914 1.62737 1.62551 1.62366 1.62183 1.62008 1.61843 1.61692 1.61557 1.61441 1.61344 1.61271 1.61221 1.61196 1.61196 1.61221 1.61271 1.61346 1.61442 1.61561 1.61699 1.61855 1.62026 1.6221 1.62403 1.62605 1.6281 1.63018 1.63225 1.63429 1.63627 1.63817 1.63996 1.64162 1.64313 1.64449 1.64565 1.64663 1.6474 1.64796 1.64829 1.6484 1.64829 1.64796 1.6474 1.64663 1.64565 1.64449 1.64313 1.64162 1.63996 1.63817 1.63627 1.63429 1.63225 1.63018 1.6281 1.62605 1.62403 1.6221 1.62026 1.61855 1.61699 1.61561 1.61442 1.61346 1.61271 1.61221 1.61196 1.61196 1.61221 1.61271 1.61344 1.61441 1.61557 1.61692 1.61843 1.62008 1.62183 1.62366 1.62551 1.62737 1.62914 1.63079 1.63218 1.63321 1.63359 1.63303 1.63094 1.62656 1.61858 1.60521 1.58383 1.55118 1.50355 1.43788 1.35312 1.25174 1.13988 1.02589 0.917853 0.821603 0.739955 0.673221 0.620118 0.578656 0.546711 0.52233 0.503857 0.489937 0.479506 0.471717 0.465929 0.461628 0.458439 0.456047 0.454236 0.452809 0.451646 0.45062 0.449671 0.448713 0.447724 0.446646 0.445485 0.444202 0.442821 0.441321 0.439738 0.438067 0.436355 0.434607 0.432875 0.431174 0.429558 0.428046 0.426687 0.425499 0.424523 0.423772 0.423269 0.423017 0.424743 0.424997 0.42551 0.426272 0.427271 0.428473 0.429857 0.431378 0.43301 0.434699 0.436423 0.43813 0.439804 0.441398 0.442909 0.444302 0.44559 0.446751 0.447816 0.448784 0.449708 0.450612 0.451578 0.452666 0.454 0.455697 0.457946 0.460957 0.46503 0.470526 0.477937 0.487875 0.501149 0.518777 0.542057 0.572582 0.612247 0.663146 0.727307 0.806174 0.899779 1.00582 1.11903 1.2317 1.33536 1.4234 1.49264 1.54352 1.57882 1.60218 1.61698 1.62594 1.631 1.63355 1.63443 1.63426 1.63339 1.6321 1.63052 1.62878 1.62693 1.62507 1.6232 1.62139 1.61965 1.61804 1.61655 1.61524 1.6141 1.61318 1.61247 1.612 1.61176 1.61177 1.61202 1.61252 1.61324 1.61418 1.61531 1.61663 1.61811 1.61973 1.62145 1.62326 1.62512 1.62702 1.62891 1.63079 1.63262 1.63438 1.63604 1.63759 1.639 1.64026 1.64135 1.64226 1.64298 1.6435 1.64381 1.64392 1.64381 1.6435 1.64298 1.64226 1.64135 1.64026 1.639 1.63759 1.63604 1.63438 1.63262 1.63079 1.62891 1.62702 1.62512 1.62326 1.62145 1.61973 1.61811 1.61663 1.61531 1.61418 1.61324 1.61252 1.61202 1.61177 1.61176 1.612 1.61247 1.61318 1.6141 1.61524 1.61655 1.61804 1.61965 1.62139 1.6232 1.62507 1.62693 1.62878 1.63052 1.6321 1.63339 1.63426 1.63443 1.63355 1.631 1.62594 1.61698 1.60218 1.57882 1.54352 1.49264 1.4234 1.33536 1.2317 1.11903 1.00582 0.899779 0.806174 0.727307 0.663147 0.612248 0.572583 0.542058 0.518778 0.501149 0.487875 0.477936 0.470523 0.465025 0.460949 0.457936 0.455685 0.453987 0.452654 0.451569 0.450609 0.449715 0.448805 0.447856 0.446814 0.44568 0.44442 0.443055 0.441566 0.439989 0.438319 0.436601 0.434845 0.433101 0.431385 0.429752 0.428223 0.426846 0.425642 0.424652 0.42389 0.423379 0.423123 0.424839 0.425097 0.425618 0.42639 0.427401 0.428618 0.430018 0.431555 0.433202 0.434905 0.43664 0.438356 0.440033 0.441628 0.443134 0.444518 0.44579 0.44693 0.447967 0.448902 0.449784 0.450639 0.451542 0.452558 0.453799 0.455384 0.457491 0.460322 0.464163 0.46936 0.476378 0.485803 0.498401 0.515142 0.537262 0.566288 0.604045 0.652584 0.713957 0.789754 0.880344 0.983959 1.09597 1.20911 1.31498 1.40645 1.47959 1.53417 1.57255 1.59826 1.61476 1.6249 1.63078 1.63387 1.63513 1.63523 1.63454 1.63337 1.63187 1.63018 1.62835 1.62648 1.62458 1.62271 1.6209 1.61918 1.61757 1.61611 1.6148 1.61369 1.61278 1.61209 1.61162 1.61139 1.61139 1.61164 1.6121 1.61279 1.61368 1.61476 1.616 1.61739 1.61889 1.62049 1.62216 1.62387 1.62559 1.62731 1.62898 1.6306 1.63214 1.63357 1.63488 1.63605 1.63706 1.63791 1.63858 1.63906 1.63936 1.63946 1.63936 1.63906 1.63858 1.63791 1.63706 1.63605 1.63488 1.63357 1.63214 1.6306 1.62898 1.62731 1.62559 1.62387 1.62216 1.62049 1.61889 1.61739 1.616 1.61476 1.61368 1.61279 1.6121 1.61164 1.61139 1.61139 1.61162 1.61209 1.61278 1.61369 1.6148 1.61611 1.61757 1.61918 1.6209 1.62271 1.62458 1.62648 1.62835 1.63018 1.63187 1.63337 1.63454 1.63523 1.63513 1.63387 1.63078 1.6249 1.61476 1.59826 1.57255 1.53417 1.47959 1.40645 1.31498 1.20911 1.09597 0.983959 0.880344 0.789754 0.713957 0.652585 0.604045 0.566288 0.537263 0.515143 0.498401 0.485803 0.476377 0.469357 0.464159 0.460315 0.457481 0.455372 0.453786 0.452545 0.451533 0.450635 0.44979 0.448924 0.448008 0.446995 0.445881 0.444639 0.443283 0.441801 0.440223 0.43855 0.436823 0.435056 0.433296 0.431565 0.429913 0.428365 0.42697 0.425751 0.424746 0.423972 0.423453 0.423194 0.424892 0.425153 0.425682 0.426466 0.427491 0.428724 0.430142 0.431697 0.433361 0.435081 0.436831 0.438559 0.440245 0.441846 0.443352 0.444733 0.445994 0.447121 0.448136 0.449045 0.44989 0.450701 0.451548 0.452494 0.453648 0.455122 0.457087 0.459736 0.463341 0.468229 0.474843 0.483735 0.495632 0.51145 0.532362 0.559818 0.595571 0.641614 0.700003 0.772454 0.859655 0.960383 1.07069 1.1839 1.29176 1.38673 1.4641 1.52282 1.56475 1.59324 1.61176 1.62333 1.63019 1.63395 1.63567 1.63607 1.6356 1.63458 1.63317 1.63154 1.62975 1.62787 1.62595 1.62404 1.62216 1.62035 1.61862 1.61702 1.61555 1.61426 1.61315 1.61225 1.61155 1.61108 1.61084 1.61083 1.61105 1.61148 1.61212 1.61296 1.61396 1.61512 1.6164 1.61779 1.61926 1.62079 1.62233 1.62388 1.62541 1.62689 1.6283 1.62962 1.63082 1.63191 1.63285 1.63364 1.63426 1.63471 1.63498 1.63507 1.63498 1.63471 1.63426 1.63364 1.63285 1.63191 1.63082 1.62962 1.6283 1.62689 1.62541 1.62388 1.62233 1.62079 1.61926 1.61779 1.6164 1.61512 1.61396 1.61296 1.61212 1.61148 1.61105 1.61083 1.61084 1.61108 1.61155 1.61225 1.61315 1.61426 1.61555 1.61702 1.61862 1.62035 1.62216 1.62404 1.62595 1.62787 1.62975 1.63154 1.63317 1.63458 1.6356 1.63607 1.63567 1.63395 1.63019 1.62333 1.61176 1.59324 1.56475 1.52282 1.4641 1.38673 1.29176 1.1839 1.07069 0.960383 0.859655 0.772454 0.700003 0.641615 0.595572 0.559819 0.532363 0.511451 0.495633 0.483735 0.474842 0.468227 0.463336 0.459729 0.457077 0.45511 0.453634 0.452481 0.451538 0.450697 0.449896 0.449066 0.448177 0.447186 0.446087 0.444855 0.443503 0.442022 0.440439 0.438758 0.437019 0.435238 0.43346 0.431711 0.43004 0.428473 0.427059 0.425823 0.424803 0.424018 0.423491 0.423227 0.4249 0.425166 0.425704 0.4265 0.427539 0.428791 0.430227 0.431803 0.433486 0.435226 0.436993 0.438738 0.440436 0.442048 0.443559 0.444943 0.446201 0.44732 0.44832 0.449208 0.450024 0.450797 0.451593 0.452474 0.453543 0.45491 0.456733 0.4592 0.462565 0.467139 0.473339 0.481685 0.49286 0.507728 0.527392 0.553225 0.586895 0.630328 0.685562 0.754413 0.837864 0.935223 1.04328 1.15602 1.26552 1.36394 1.44579 1.50912 1.55512 1.58686 1.60779 1.62108 1.62913 1.63371 1.63598 1.63676 1.63656 1.63571 1.63443 1.63287 1.63112 1.62926 1.62733 1.62538 1.62344 1.62154 1.61971 1.61798 1.61636 1.6149 1.6136 1.61249 1.61157 1.61087 1.61039 1.61013 1.6101 1.61028 1.61067 1.61126 1.61202 1.61295 1.61401 1.61519 1.61646 1.61779 1.61917 1.62055 1.62193 1.62327 1.62455 1.62576 1.62687 1.62786 1.62873 1.62946 1.63003 1.63045 1.63071 1.63079 1.63071 1.63045 1.63003 1.62946 1.62873 1.62786 1.62687 1.62576 1.62455 1.62327 1.62193 1.62055 1.61917 1.61779 1.61646 1.61519 1.61401 1.61295 1.61202 1.61126 1.61067 1.61028 1.6101 1.61013 1.61039 1.61087 1.61157 1.61249 1.6136 1.6149 1.61636 1.61798 1.61971 1.62154 1.62344 1.62538 1.62733 1.62926 1.63112 1.63287 1.63443 1.63571 1.63656 1.63676 1.63598 1.63371 1.62913 1.62108 1.60779 1.58686 1.55512 1.50912 1.44579 1.36394 1.26552 1.15602 1.04327 0.935223 0.837864 0.754413 0.685562 0.630328 0.586896 0.553226 0.527394 0.507729 0.492861 0.481685 0.473338 0.467137 0.46256 0.459193 0.456723 0.454897 0.453529 0.452461 0.451582 0.450792 0.450029 0.449229 0.448361 0.447385 0.446294 0.445066 0.443712 0.442226 0.440633 0.438941 0.437187 0.435389 0.433592 0.431823 0.430131 0.428546 0.427112 0.425859 0.424824 0.424028 0.423492 0.423224 0.424865 0.425136 0.425682 0.426491 0.427547 0.428817 0.430273 0.43187 0.433575 0.435338 0.437124 0.438889 0.440604 0.442231 0.44