# vtk DataFile Version 3.0
Immiscible displacement
ASCII
DATASET RECTILINEAR_GRID
DIMENSIONS 200 200 1
X_COORDINATES 200 double
1 2 3 4 5 6 7 8 9 10 11 12 13 14 15 16 17 18 19 20 21 22 23 24 25 26 27 28 29 30 31 32 33 34 35 36 37 38 39 40 41 42 43 44 45 46 47 48 49 50 51 52 53 54 55 56 57 58 59 60 61 62 63 64 65 66 67 68 69 70 71 72 73 74 75 76 77 78 79 80 81 82 83 84 85 86 87 88 89 90 91 92 93 94 95 96 97 98 99 100 101 102 103 104 105 106 107 108 109 110 111 112 113 114 115 116 117 118 119 120 121 122 123 124 125 126 127 128 129 130 131 132 133 134 135 136 137 138 139 140 141 142 143 144 145 146 147 148 149 150 151 152 153 154 155 156 157 158 159 160 161 162 163 164 165 166 167 168 169 170 171 172 173 174 175 176 177 178 179 180 181 182 183 184 185 186 187 188 189 190 191 192 193 194 195 196 197 198 199 200 
Y_COORDINATES 200 double
1 2 3 4 5 6 7 8 9 10 11 12 13 14 15 16 17 18 19 20 21 22 23 24 25 26 27 28 29 30 31 32 33 34 35 36 37 38 39 40 41 42 43 44 45 46 47 48 49 50 51 52 53 54 55 56 57 58 59 60 61 62 63 64 65 66 67 68 69 70 71 72 73 74 75 76 77 78 79 80 81 82 83 84 85 86 87 88 89 90 91 92 93 94 95 96 97 98 99 100 101 102 103 104 105 106 107 108 109 110 111 112 113 114 115 116 117 118 119 120 121 122 123 124 125 126 127 128 129 130 131 132 133 134 135 136 137 138 139 140 141 142 143 144 145 146 147 148 149 150 151 152 153 154 155 156 157 158 159 160 161 162 163 164 165 166 167 168 169 170 171 172 173 174 175 176 177 178 179 180 181 182 183 184 185 186 187 188 189 190 191 192 193 194 195 196 197 198 199 200 
Z_COORDINATES 1 double
0
POINT_DATA 40000
SCALARS rho double 1
LOOKUP_TABLE default
0.451305 0.451524 0.451764 0.451928 0.451966 0.451857 0.451594 0.451186 0.450641 0.449982 0.449224 0.448394 0.447509 0.446597 0.445679 0.444782 0.443927 0.443147 0.442468 0.441928 0.441566 0.441438 0.441604 0.442154 0.443192 0.444867 0.447365 0.450945 0.455937 0.462793 0.4721 0.484646 0.50145 0.523846 0.553507 0.592494 0.643154 0.707899 0.788615 0.885759 0.997141 1.11712 1.23695 1.34695 1.43949 1.51121 1.56292 1.59812 1.62101 1.63538 1.64409 1.64918 1.65195 1.65327 1.65365 1.65343 1.65279 1.65186 1.65069 1.64934 1.64779 1.6461 1.64421 1.64217 1.63993 1.63751 1.63487 1.63204 1.62897 1.62568 1.62215 1.61839 1.61437 1.61013 1.60565 1.60095 1.59604 1.59095 1.58568 1.58029 1.57478 1.56923 1.56363 1.55807 1.55256 1.54718 1.54194 1.53692 1.53213 1.52764 1.52345 1.51964 1.5162 1.51319 1.51059 1.50845 1.50677 1.50557 1.50483 1.5046 1.50483 1.50557 1.50677 1.50845 1.51059 1.51319 1.5162 1.51964 1.52345 1.52764 1.53213 1.53692 1.54194 1.54718 1.55256 1.55807 1.56363 1.56923 1.57478 1.58029 1.58568 1.59095 1.59604 1.60095 1.60565 1.61013 1.61437 1.61839 1.62215 1.62568 1.62897 1.63204 1.63487 1.63751 1.63993 1.64217 1.64421 1.6461 1.64779 1.64934 1.65069 1.65186 1.65279 1.65343 1.65365 1.65327 1.65194 1.64917 1.64408 1.63537 1.621 1.59812 1.56291 1.5112 1.43948 1.34694 1.23695 1.11713 0.997156 0.885782 0.788646 0.707937 0.643198 0.592543 0.553559 0.523898 0.5015 0.484689 0.472131 0.462807 0.455927 0.450903 0.447283 0.444735 0.443 0.441891 0.441261 0.441005 0.441034 0.441288 0.441714 0.442276 0.442936 0.443672 0.444455 0.445266 0.446081 0.446884 0.447651 0.448366 0.449004 0.449551 0.449986 0.450294 0.450463 0.45049 0.450378 0.450152 0.449862 0.449613 0.451664 0.451809 0.45198 0.452091 0.452088 0.451949 0.451663 0.451238 0.450679 0.45001 0.449243 0.448407 0.447515 0.4466 0.445676 0.444775 0.443916 0.443133 0.442448 0.441905 0.441537 0.441404 0.441563 0.442107 0.443134 0.444799 0.447281 0.450842 0.455805 0.462627 0.471884 0.484367 0.501083 0.523366 0.552875 0.59167 0.642084 0.70654 0.786928 0.883754 0.994878 1.11474 1.23464 1.3449 1.43781 1.50994 1.56201 1.5975 1.62058 1.63509 1.64388 1.64903 1.65182 1.65318 1.65356 1.65336 1.65271 1.6518 1.65062 1.64928 1.64773 1.64605 1.64416 1.64214 1.6399 1.6375 1.63487 1.63207 1.62901 1.62576 1.62224 1.61853 1.61454 1.61035 1.6059 1.60126 1.59638 1.59135 1.58613 1.5808 1.57534 1.56984 1.56429 1.55878 1.5533 1.54797 1.54275 1.53777 1.533 1.52853 1.52436 1.52056 1.51713 1.51412 1.51153 1.5094 1.50771 1.50651 1.50578 1.50554 1.50578 1.50651 1.50771 1.5094 1.51153 1.51412 1.51713 1.52056 1.52436 1.52853 1.533 1.53777 1.54275 1.54797 1.5533 1.55878 1.56429 1.56984 1.57534 1.5808 1.58613 1.59135 1.59638 1.60126 1.6059 1.61035 1.61454 1.61853 1.62224 1.62576 1.62901 1.63207 1.63487 1.6375 1.6399 1.64214 1.64417 1.64605 1.64773 1.64928 1.65062 1.6518 1.65271 1.65336 1.65356 1.65317 1.65182 1.64902 1.64387 1.63508 1.62057 1.59749 1.562 1.50993 1.43781 1.3449 1.23464 1.11475 0.994894 0.883778 0.78696 0.706579 0.642129 0.591719 0.552927 0.523417 0.501131 0.484407 0.471912 0.462636 0.45579 0.450793 0.447191 0.444658 0.442933 0.441834 0.44121 0.440959 0.440993 0.441253 0.441683 0.44225 0.442914 0.443656 0.444443 0.445261 0.446082 0.446892 0.447666 0.44839 0.449038 0.449598 0.450047 0.450375 0.450568 0.450628 0.450559 0.45039 0.450173 0.450003 0.45221 0.452287 0.452373 0.452405 0.452335 0.452142 0.451813 0.451353 0.450768 0.450077 0.449292 0.44844 0.447536 0.446609 0.445674 0.444764 0.443896 0.443103 0.44241 0.441857 0.44148 0.441336 0.441483 0.442011 0.443021 0.444662 0.447114 0.450635 0.455547 0.462299 0.471463 0.483822 0.500373 0.522437 0.551658 0.59008 0.640027 0.703921 0.783682 0.879886 0.990509 1.11014 1.23016 1.3409 1.43453 1.50744 1.56022 1.59627 1.61975 1.63453 1.64349 1.64875 1.65162 1.65302 1.65343 1.65324 1.65261 1.6517 1.65053 1.6492 1.64767 1.64599 1.64413 1.64212 1.6399 1.63753 1.63493 1.63215 1.62914 1.62593 1.62247 1.61881 1.61489 1.61077 1.60639 1.60184 1.59705 1.5921 1.58697 1.58173 1.57637 1.57096 1.5655 1.56007 1.55468 1.54941 1.54427 1.53934 1.53462 1.53019 1.52606 1.52229 1.51888 1.51589 1.51331 1.51119 1.5095 1.50831 1.50758 1.50734 1.50758 1.50831 1.5095 1.51119 1.51331 1.51589 1.51888 1.52229 1.52606 1.53019 1.53462 1.53934 1.54427 1.54941 1.55468 1.56007 1.5655 1.57096 1.57637 1.58173 1.58697 1.5921 1.59705 1.60184 1.60639 1.61077 1.61489 1.61881 1.62247 1.62593 1.62914 1.63215 1.63493 1.63753 1.6399 1.64212 1.64413 1.646 1.64767 1.6492 1.65053 1.6517 1.65261 1.65324 1.65343 1.65301 1.65162 1.64875 1.64349 1.63452 1.61974 1.59626 1.56021 1.50743 1.43452 1.34089 1.23016 1.11015 0.990528 0.879912 0.783716 0.703961 0.640072 0.590129 0.551708 0.522485 0.500417 0.483857 0.471485 0.4623 0.455522 0.450576 0.447012 0.444506 0.442803 0.441721 0.44111 0.440871 0.440915 0.441185 0.441624 0.4422 0.442875 0.443626 0.444425 0.445255 0.446089 0.446913 0.447704 0.448445 0.449115 0.449699 0.450179 0.450544 0.450784 0.4509 0.450902 0.450817 0.450692 0.450594 0.452862 0.452884 0.45289 0.452837 0.452689 0.452428 0.452042 0.451535 0.45091 0.450186 0.449374 0.448498 0.447573 0.446627 0.445677 0.444751 0.443868 0.443062 0.442355 0.441788 0.441396 0.441236 0.441365 0.441871 0.442854 0.444461 0.44687 0.450334 0.45517 0.461821 0.470852 0.483033 0.499346 0.521095 0.549902 0.587789 0.637062 0.700146 0.778999 0.874294 0.984176 1.10343 1.2236 1.33501 1.42968 1.50374 1.55756 1.59444 1.61852 1.63371 1.64294 1.64838 1.65135 1.65281 1.65327 1.65311 1.6525 1.65161 1.65045 1.64914 1.64762 1.64596 1.64412 1.64213 1.63995 1.63761 1.63505 1.63233 1.62936 1.62622 1.62283 1.61925 1.61541 1.61139 1.60711 1.60267 1.59799 1.59317 1.58816 1.58305 1.57781 1.57253 1.56719 1.56188 1.5566 1.55144 1.54639 1.54154 1.5369 1.53254 1.52847 1.52475 1.52137 1.51841 1.51585 1.51375 1.51208 1.51089 1.51016 1.50993 1.51016 1.51089 1.51208 1.51375 1.51585 1.51841 1.52137 1.52475 1.52847 1.53254 1.5369 1.54154 1.54639 1.55144 1.5566 1.56188 1.56719 1.57253 1.57781 1.58305 1.58816 1.59317 1.59799 1.60267 1.60711 1.61139 1.61541 1.61925 1.62283 1.62622 1.62936 1.63233 1.63505 1.63761 1.63995 1.64213 1.64412 1.64596 1.64762 1.64914 1.65046 1.65161 1.6525 1.65311 1.65327 1.65281 1.65135 1.64837 1.64294 1.63371 1.61852 1.59443 1.55755 1.50373 1.42968 1.33501 1.22361 1.10344 0.984197 0.874323 0.779035 0.700187 0.637108 0.587837 0.54995 0.52114 0.499386 0.483062 0.470866 0.461813 0.455133 0.45026 0.446751 0.444287 0.442616 0.441558 0.440968 0.440746 0.440806 0.441089 0.441543 0.442133 0.442822 0.443589 0.444404 0.445251 0.446106 0.446951 0.447766 0.448535 0.449236 0.449857 0.45038 0.450796 0.451098 0.451286 0.451371 0.451376 0.451336 0.451297 0.453574 0.453552 0.453487 0.453353 0.453125 0.45279 0.452339 0.451775 0.451102 0.450336 0.449488 0.44858 0.447629 0.446658 0.445685 0.444739 0.443837 0.443011 0.442286 0.441701 0.441289 0.441108 0.441212 0.44169 0.442638 0.444201 0.446554 0.449944 0.454684 0.461207 0.470068 0.482021 0.498031 0.519378 0.547656 0.58486 0.633273 0.695317 0.772998 0.867112 0.976012 1.09475 1.21506 1.32731 1.42329 1.49883 1.55402 1.592 1.61689 1.63264 1.64224 1.6479 1.65103 1.65258 1.6531 1.65298 1.6524 1.65153 1.6504 1.6491 1.6476 1.64597 1.64415 1.6422 1.64005 1.63776 1.63525 1.63259 1.6297 1.62663 1.62332 1.61984 1.6161 1.61219 1.60804 1.60372 1.59919 1.59451 1.58965 1.58469 1.57961 1.57448 1.56929 1.56413 1.559 1.55397 1.54904 1.54431 1.53977 1.5355 1.5315 1.52785 1.52453 1.52162 1.51909 1.51702 1.51537 1.5142 1.51348 1.51325 1.51348 1.5142 1.51537 1.51702 1.51909 1.52162 1.52453 1.52785 1.5315 1.5355 1.53977 1.54431 1.54904 1.55397 1.559 1.56413 1.56929 1.57448 1.57961 1.58469 1.58965 1.59451 1.59919 1.60372 1.60804 1.61219 1.6161 1.61984 1.62332 1.62663 1.6297 1.63259 1.63525 1.63776 1.64005 1.6422 1.64415 1.64597 1.6476 1.6491 1.6504 1.65153 1.6524 1.65298 1.6531 1.65258 1.65102 1.6479 1.64223 1.63263 1.61689 1.592 1.55402 1.49883 1.42329 1.32731 1.21507 1.09476 0.976037 0.867144 0.773037 0.69536 0.633319 0.584908 0.547703 0.51942 0.498066 0.482043 0.470073 0.461188 0.454634 0.449855 0.446417 0.444007 0.442377 0.441352 0.440789 0.440589 0.440669 0.44097 0.441443 0.442051 0.442759 0.443546 0.444383 0.445254 0.446134 0.447007 0.447854 0.448658 0.449399 0.450066 0.450642 0.451119 0.45149 0.451757 0.451927 0.452017 0.452053 0.45206 0.454316 0.454258 0.454132 0.453924 0.453619 0.45321 0.45269 0.452064 0.451337 0.450522 0.449632 0.448687 0.447701 0.4467 0.4457 0.444728 0.443802 0.442954 0.442206 0.441597 0.441162 0.440955 0.44103 0.441473 0.442379 0.443889 0.446174 0.449476 0.454101 0.460471 0.469128 0.480809 0.496458 0.517325 0.544972 0.581359 0.62874 0.689535 0.765799 0.858468 0.966144 1.08419 1.20461 1.3178 1.41536 1.49271 1.54959 1.58894 1.61485 1.63129 1.64136 1.64733 1.65064 1.65232 1.65292 1.65286 1.65231 1.65147 1.65037 1.6491 1.64763 1.64603 1.64424 1.64233 1.64023 1.63799 1.63554 1.63295 1.63013 1.62715 1.62394 1.62056 1.61695 1.61317 1.60916 1.60499 1.60061 1.5961 1.59141 1.58663 1.58172 1.57677 1.57176 1.56678 1.56181 1.55694 1.55217 1.54757 1.54316 1.539 1.53511 1.53154 1.5283 1.52544 1.52297 1.52093 1.51932 1.51817 1.51746 1.51723 1.51746 1.51817 1.51932 1.52093 1.52297 1.52544 1.5283 1.53154 1.53511 1.539 1.54316 1.54757 1.55217 1.55694 1.56181 1.56678 1.57176 1.57677 1.58172 1.58663 1.59141 1.5961 1.60061 1.60499 1.60916 1.61317 1.61695 1.62056 1.62394 1.62715 1.63013 1.63295 1.63554 1.63799 1.64023 1.64233 1.64424 1.64603 1.64763 1.6491 1.65037 1.65147 1.65231 1.65286 1.65292 1.65232 1.65064 1.64732 1.64135 1.63129 1.61484 1.58894 1.54958 1.4927 1.41536 1.31781 1.20462 1.08421 0.966172 0.858503 0.76584 0.689579 0.628787 0.581406 0.545017 0.517364 0.496488 0.480825 0.469124 0.460441 0.454037 0.449371 0.446018 0.443673 0.442093 0.441108 0.440578 0.440405 0.440509 0.440834 0.441328 0.441958 0.44269 0.4435 0.444364 0.445262 0.446173 0.447081 0.447965 0.44881 0.449598 0.450317 0.450952 0.451495 0.451939 0.452285 0.452536 0.452705 0.452804 0.45285 0.455068 0.454979 0.4548 0.454526 0.45415 0.453668 0.45308 0.45239 0.451605 0.450738 0.449801 0.448813 0.44779 0.446754 0.445722 0.44472 0.443766 0.442891 0.442117 0.441482 0.441019 0.440781 0.440822 0.441225 0.442082 0.443532 0.445739 0.44894 0.453432 0.459627 0.468051 0.479421 0.494656 0.514973 0.541899 0.577349 0.623545 0.682898 0.757516 0.848486 0.954689 1.07185 1.1923 1.30652 1.40586 1.48531 1.5442 1.58521 1.61236 1.62966 1.6403 1.64664 1.6502 1.65203 1.65273 1.65274 1.65224 1.65144 1.65037 1.64913 1.64769 1.64613 1.64439 1.64252 1.64047 1.63829 1.63591 1.63339 1.63066 1.62778 1.62468 1.62142 1.61794 1.6143 1.61044 1.60644 1.60223 1.5979 1.59341 1.58882 1.58411 1.57936 1.57455 1.56976 1.56498 1.5603 1.5557 1.55127 1.547 1.54299 1.53921 1.53575 1.5326 1.52983 1.52742 1.52544 1.52386 1.52274 1.52204 1.52182 1.52204 1.52274 1.52386 1.52544 1.52742 1.52983 1.5326 1.53575 1.53921 1.54299 1.547 1.55127 1.5557 1.5603 1.56498 1.56976 1.57455 1.57936 1.58411 1.58882 1.59341 1.5979 1.60223 1.60644 1.61044 1.6143 1.61794 1.62142 1.62468 1.62778 1.63066 1.63339 1.63591 1.63829 1.64047 1.64252 1.64439 1.64613 1.64769 1.64913 1.65037 1.65144 1.65224 1.65274 1.65273 1.65203 1.6502 1.64664 1.6403 1.62966 1.61235 1.58521 1.5442 1.48531 1.40586 1.30653 1.19232 1.07188 0.954721 0.848523 0.757559 0.682944 0.623592 0.577395 0.541942 0.51501 0.494682 0.47943 0.468038 0.459585 0.453355 0.448818 0.445564 0.443294 0.441772 0.440833 0.44034 0.4402 0.440332 0.440682 0.441202 0.441857 0.442616 0.443454 0.444347 0.445277 0.446224 0.447169 0.448095 0.448986 0.449826 0.450601 0.451298 0.451909 0.452426 0.452847 0.453174 0.453412 0.453566 0.453644 0.455812 0.455697 0.455472 0.45514 0.454698 0.454149 0.453494 0.452741 0.451897 0.450976 0.449989 0.448956 0.447891 0.446817 0.44575 0.444714 0.44373 0.442824 0.442021 0.441356 0.440862 0.44059 0.440594 0.440951 0.441755 0.443136 0.445257 0.448346 0.45269 0.458689 0.466854 0.477879 0.492655 0.512362 0.538485 0.572891 0.617764 0.6755 0.748258 0.837283 0.94176 1.05783 1.17818 1.29344 1.39475 1.47659 1.53781 1.58076 1.60937 1.62771 1.63904 1.64584 1.64969 1.65171 1.65253 1.65262 1.65219 1.65144 1.65041 1.6492 1.64781 1.64628 1.64459 1.64277 1.64078 1.63866 1.63636 1.63393 1.63129 1.62851 1.62553 1.6224 1.61906 1.61557 1.61188 1.60804 1.60403 1.59989 1.5956 1.59122 1.58673 1.5822 1.57761 1.57304 1.56847 1.56399 1.55959 1.55534 1.55125 1.54739 1.54376 1.54043 1.53739 1.53471 1.53239 1.53047 1.52894 1.52785 1.52718 1.52697 1.52718 1.52785 1.52894 1.53047 1.53239 1.53471 1.53739 1.54043 1.54376 1.54739 1.55125 1.55534 1.55959 1.56399 1.56847 1.57304 1.57761 1.5822 1.58673 1.59122 1.5956 1.59989 1.60403 1.60804 1.61188 1.61557 1.61906 1.6224 1.62553 1.62851 1.63129 1.63393 1.63636 1.63866 1.64078 1.64277 1.64459 1.64628 1.64781 1.6492 1.65041 1.65144 1.65219 1.65262 1.65253 1.65171 1.64969 1.64583 1.63904 1.62771 1.60937 1.58076 1.5378 1.47659 1.39475 1.29345 1.1782 1.05785 0.941794 0.837323 0.748303 0.675548 0.617812 0.572937 0.538526 0.512395 0.492676 0.477882 0.466833 0.458637 0.4526 0.448208 0.445063 0.442876 0.44142 0.440532 0.440082 0.439977 0.440141 0.44052 0.441068 0.441752 0.442539 0.443408 0.444334 0.445299 0.446283 0.447269 0.448241 0.449181 0.450074 0.450907 0.451667 0.452345 0.452931 0.453424 0.453819 0.454118 0.45432 0.454425 0.456536 0.456399 0.456135 0.455751 0.45525 0.454639 0.453921 0.453107 0.452204 0.451228 0.450191 0.44911 0.448002 0.446887 0.445782 0.444711 0.443693 0.442755 0.44192 0.441222 0.440695 0.440386 0.440348 0.440657 0.441402 0.442709 0.444736 0.447702 0.451886 0.457673 0.465557 0.476206 0.490482 0.509526 0.534775 0.568046 0.611474 0.667434 0.738133 0.824975 0.927465 1.04219 1.16229 1.27856 1.38196 1.46645 1.53031 1.57551 1.60584 1.6254 1.63756 1.6449 1.6491 1.65135 1.65232 1.65252 1.65215 1.65146 1.65047 1.64932 1.64796 1.64649 1.64484 1.64308 1.64115 1.63911 1.63689 1.63454 1.63201 1.62934 1.62648 1.62348 1.62029 1.61696 1.61344 1.60979 1.60598 1.60205 1.59797 1.59381 1.58955 1.58525 1.5809 1.57655 1.57222 1.56796 1.56377 1.55973 1.55583 1.55215 1.54868 1.54549 1.54259 1.54002 1.53779 1.53595 1.53448 1.53343 1.53279 1.53258 1.53279 1.53343 1.53448 1.53595 1.53779 1.54002 1.54259 1.54549 1.54868 1.55215 1.55583 1.55973 1.56377 1.56796 1.57222 1.57655 1.5809 1.58525 1.58955 1.59381 1.59797 1.60205 1.60598 1.60979 1.61344 1.61696 1.62029 1.62348 1.62648 1.62934 1.63201 1.63454 1.63689 1.63911 1.64115 1.64308 1.64484 1.64649 1.64796 1.64932 1.65047 1.65146 1.65215 1.65251 1.65232 1.65135 1.6491 1.64489 1.63755 1.62539 1.60584 1.57551 1.53031 1.46645 1.38196 1.27858 1.16231 1.04222 0.927501 0.825017 0.738179 0.667483 0.611522 0.568091 0.534815 0.509556 0.490498 0.476202 0.465527 0.457611 0.451783 0.447548 0.444524 0.442428 0.441043 0.440211 0.439807 0.439741 0.43994 0.44035 0.440929 0.441643 0.442462 0.443362 0.444323 0.445325 0.446349 0.447379 0.448397 0.449387 0.450335 0.451226 0.452048 0.45279 0.453442 0.454 0.454456 0.454809 0.455052 0.455179 0.457231 0.457075 0.456777 0.456347 0.455794 0.455126 0.45435 0.453477 0.452518 0.451488 0.4504 0.449271 0.448118 0.446961 0.445818 0.44471 0.443657 0.442684 0.441816 0.441084 0.440521 0.440173 0.440091 0.440347 0.441028 0.442257 0.444183 0.447018 0.451031 0.456591 0.464174 0.474422 0.488165 0.5065 0.530816 0.562869 0.604744 0.658788 0.727244 0.811672 0.911909 1.02502 1.14464 1.26185 1.36742 1.45479 1.5216 1.56937 1.60169 1.62268 1.63581 1.64379 1.64841 1.65094 1.65209 1.65241 1.65213 1.6515 1.65057 1.64946 1.64816 1.64673 1.64514 1.64344 1.64159 1.63962 1.63748 1.63523 1.6328 1.63025 1.62752 1.62466 1.62162 1.61846 1.61512 1.61166 1.60805 1.60433 1.60048 1.59656 1.59254 1.58848 1.58437 1.58027 1.57618 1.57215 1.5682 1.56438 1.56069 1.5572 1.55391 1.55089 1.54813 1.54569 1.54357 1.54181 1.54041 1.53942 1.5388 1.53861 1.5388 1.53942 1.54041 1.54181 1.54357 1.54569 1.54813 1.55089 1.55391 1.5572 1.56069 1.56438 1.5682 1.57215 1.57618 1.58027 1.58437 1.58848 1.59254 1.59656 1.60048 1.60433 1.60805 1.61166 1.61512 1.61846 1.62162 1.62466 1.62752 1.63025 1.6328 1.63523 1.63748 1.63962 1.64159 1.64345 1.64514 1.64673 1.64816 1.64946 1.65057 1.6515 1.65213 1.6524 1.65209 1.65094 1.64841 1.64379 1.63581 1.62267 1.60169 1.56937 1.5216 1.45479 1.36742 1.26186 1.14466 1.02505 0.911947 0.811717 0.727292 0.658837 0.604793 0.562914 0.530854 0.506528 0.488177 0.474413 0.464137 0.456519 0.450916 0.44685 0.443954 0.441956 0.440647 0.439876 0.439521 0.439496 0.439731 0.440176 0.440787 0.441532 0.442383 0.443318 0.444315 0.445355 0.44642 0.447494 0.448559 0.4496 0.450602 0.45155 0.45243 0.453233 0.453947 0.454563 0.455074 0.455473 0.455752 0.455899 0.45789 0.457718 0.45739 0.456921 0.456321 0.455601 0.454771 0.453844 0.452832 0.451749 0.450611 0.449435 0.448238 0.447039 0.445855 0.444709 0.44362 0.442612 0.441709 0.440941 0.440341 0.439952 0.439824 0.440025 0.44064 0.441785 0.443606 0.446303 0.450136 0.455457 0.462723 0.472548 0.485729 0.503318 0.526648 0.557415 0.597645 0.649646 0.71569 0.797486 0.895197 1.0064 1.12528 1.24326 1.35102 1.44148 1.51155 1.56222 1.59683 1.61947 1.63375 1.64249 1.64762 1.65046 1.65183 1.65229 1.65212 1.65156 1.6507 1.64965 1.6484 1.64703 1.6455 1.64386 1.64208 1.64018 1.63814 1.63598 1.63367 1.63123 1.62864 1.62592 1.62304 1.62005 1.6169 1.61363 1.61023 1.60673 1.60311 1.59942 1.59565 1.59184 1.58798 1.58414 1.5803 1.57652 1.57281 1.56922 1.56576 1.56248 1.55939 1.55654 1.55394 1.55164 1.54963 1.54798 1.54666 1.54571 1.54513 1.54495 1.54513 1.54571 1.54666 1.54798 1.54963 1.55164 1.55394 1.55654 1.55939 1.56248 1.56576 1.56922 1.57281 1.57652 1.5803 1.58414 1.58798 1.59184 1.59564 1.59942 1.60311 1.60673 1.61023 1.61363 1.6169 1.62005 1.62304 1.62592 1.62864 1.63123 1.63367 1.63598 1.63814 1.64019 1.64208 1.64386 1.6455 1.64703 1.6484 1.64965 1.6507 1.65156 1.65212 1.65229 1.65183 1.65046 1.64761 1.64249 1.63375 1.61947 1.59682 1.56222 1.51155 1.44148 1.35103 1.24328 1.1253 1.00643 0.895238 0.797532 0.715739 0.649696 0.597694 0.557459 0.526685 0.503343 0.485738 0.472534 0.462679 0.455376 0.450009 0.446122 0.44336 0.441466 0.440238 0.43953 0.439227 0.439245 0.439519 0.439998 0.440642 0.441421 0.442306 0.443275 0.444308 0.445387 0.446493 0.447611 0.448723 0.449813 0.450867 0.45187 0.452807 0.453666 0.454436 0.455105 0.455665 0.456104 0.456413 0.456576 0.458509 0.458323 0.45797 0.457466 0.456824 0.456058 0.455179 0.454201 0.453138 0.452006 0.45082 0.449598 0.448357 0.447116 0.445893 0.444709 0.443583 0.442539 0.441601 0.440797 0.440158 0.439727 0.439551 0.439696 0.440243 0.441301 0.443011 0.445565 0.44921 0.454282 0.461218 0.470604 0.483199 0.500009 0.522313 0.551736 0.590242 0.640091 0.703571 0.782524 0.877439 0.986405 1.10423 1.22277 1.33268 1.42636 1.5 1.55392 1.59114 1.61571 1.63132 1.64096 1.64667 1.64991 1.65153 1.65216 1.65211 1.65164 1.65085 1.64986 1.64867 1.64736 1.64589 1.64432 1.64261 1.64081 1.63885 1.6368 1.63459 1.63228 1.62982 1.62725 1.62454 1.62171 1.61875 1.61568 1.61249 1.60921 1.60582 1.60238 1.59885 1.5953 1.5917 1.58812 1.58454 1.58102 1.57756 1.57422 1.57098 1.56793 1.56504 1.56238 1.55995 1.5578 1.55592 1.55437 1.55313 1.55225 1.55171 1.55153 1.55171 1.55225 1.55313 1.55437 1.55592 1.5578 1.55995 1.56238 1.56504 1.56793 1.57098 1.57422 1.57756 1.58102 1.58454 1.58812 1.5917 1.5953 1.59885 1.60238 1.60582 1.60921 1.61249 1.61568 1.61875 1.62171 1.62454 1.62725 1.62982 1.63228 1.63459 1.6368 1.63885 1.64081 1.64262 1.64433 1.64589 1.64736 1.64867 1.64986 1.65085 1.65164 1.65211 1.65216 1.65153 1.6499 1.64667 1.64096 1.63132 1.6157 1.59113 1.55391 1.49999 1.42637 1.33269 1.22279 1.10426 0.98644 0.877481 0.782571 0.703621 0.640142 0.590291 0.551781 0.522349 0.500032 0.483205 0.470585 0.461168 0.454193 0.449074 0.445371 0.442751 0.440964 0.43982 0.439178 0.438928 0.438992 0.439305 0.43982 0.440498 0.44131 0.442228 0.443232 0.444302 0.445419 0.446566 0.447727 0.448885 0.450023 0.451127 0.452181 0.45317 0.454082 0.454902 0.455619 0.456221 0.456696 0.45703 0.457207 0.459084 0.458886 0.458511 0.457977 0.457299 0.456491 0.455567 0.454543 0.453434 0.452255 0.451023 0.449757 0.448473 0.447191 0.445929 0.444707 0.443545 0.442466 0.441492 0.440651 0.439974 0.4395 0.439276 0.439363 0.439839 0.440808 0.442405 0.444812 0.448263 0.453079 0.459674 0.468606 0.480598 0.496606 0.517848 0.545883 0.582599 0.630202 0.690982 0.766898 0.858746 0.96514 1.08155 1.20034 1.31228 1.40929 1.48676 1.54429 1.58448 1.61128 1.62846 1.63915 1.64556 1.64925 1.65117 1.652 1.65209 1.65173 1.65102 1.6501 1.64898 1.64773 1.64633 1.64483 1.6432 1.64147 1.63962 1.63766 1.63557 1.63339 1.63106 1.62864 1.62609 1.62343 1.62065 1.61779 1.6148 1.61175 1.6086 1.60539 1.60211 1.59882 1.59548 1.59216 1.58885 1.58559 1.58239 1.57929 1.5763 1.57346 1.57079 1.56833 1.56607 1.56408 1.56234 1.5609 1.55975 1.55893 1.55843 1.55827 1.55843 1.55893 1.55975 1.5609 1.56234 1.56408 1.56607 1.56833 1.57079 1.57346 1.5763 1.57929 1.58239 1.58559 1.58885 1.59216 1.59548 1.59882 1.60211 1.60539 1.6086 1.61175 1.6148 1.61779 1.62065 1.62343 1.62609 1.62864 1.63106 1.63339 1.63557 1.63766 1.63962 1.64148 1.6432 1.64483 1.64633 1.64773 1.64898 1.6501 1.65102 1.65173 1.65209 1.652 1.65117 1.64925 1.64556 1.63914 1.62845 1.61127 1.58448 1.54428 1.48676 1.40929 1.31229 1.20036 1.08158 0.965176 0.858789 0.766946 0.691033 0.630254 0.582648 0.545927 0.517883 0.496627 0.480601 0.468583 0.459619 0.452983 0.448118 0.444607 0.442132 0.440456 0.439398 0.438823 0.438629 0.438739 0.439092 0.439643 0.440356 0.4412 0.442152 0.44319 0.444296 0.445451 0.446638 0.44784 0.449041 0.450225 0.451376 0.452478 0.453516 0.454475 0.455341 0.456101 0.45674 0.457245 0.457601 0.45779 0.459613 0.459406 0.459012 0.458452 0.457741 0.456897 0.455933 0.454867 0.453714 0.452492 0.451217 0.449909 0.448584 0.447263 0.445963 0.444705 0.443507 0.442393 0.441384 0.440507 0.439791 0.439274 0.439001 0.439029 0.439434 0.440313 0.441794 0.44405 0.447304 0.451857 0.458105 0.466573 0.477948 0.493135 0.513292 0.539901 0.574777 0.620058 0.678021 0.75072 0.839237 0.942707 1.05729 1.17598 1.28973 1.39008 1.47162 1.53314 1.57669 1.60605 1.62505 1.63699 1.64423 1.64846 1.65074 1.65181 1.65207 1.65182 1.65121 1.65036 1.64931 1.64813 1.6468 1.64538 1.64382 1.64218 1.64042 1.63857 1.6366 1.63454 1.63235 1.63008 1.62768 1.6252 1.62261 1.61994 1.61716 1.61433 1.61141 1.60844 1.60541 1.60237 1.5993 1.59624 1.59319 1.59019 1.58725 1.5844 1.58165 1.57905 1.57659 1.57433 1.57226 1.57043 1.56883 1.56751 1.56645 1.5657 1.56523 1.56508 1.56523 1.5657 1.56645 1.56751 1.56883 1.57043 1.57226 1.57433 1.57659 1.57905 1.58165 1.5844 1.58725 1.59019 1.59319 1.59624 1.5993 1.60237 1.60541 1.60844 1.61141 1.61433 1.61716 1.61994 1.62261 1.6252 1.62768 1.63008 1.63235 1.63454 1.6366 1.63857 1.64042 1.64219 1.64383 1.64538 1.6468 1.64813 1.64931 1.65036 1.65121 1.65182 1.65207 1.65181 1.65074 1.64846 1.64422 1.63698 1.62505 1.60604 1.57669 1.53313 1.47162 1.39008 1.28974 1.17599 1.05732 0.942744 0.839281 0.750769 0.678073 0.62011 0.574827 0.539945 0.513326 0.493155 0.477949 0.466547 0.458045 0.451755 0.447151 0.443836 0.441509 0.439947 0.438976 0.438471 0.438333 0.438489 0.438882 0.439469 0.440215 0.441093 0.442078 0.443149 0.444289 0.44548 0.446705 0.447947 0.44919 0.450417 0.451612 0.452758 0.45384 0.454842 0.455749 0.456546 0.457218 0.45775 0.458124 0.458322 0.460097 0.459881 0.459472 0.458889 0.45815 0.457272 0.456273 0.455168 0.453976 0.452713 0.451399 0.450051 0.448688 0.447329 0.445993 0.4447 0.443469 0.44232 0.441277 0.440364 0.43961 0.439051 0.438729 0.438699 0.439031 0.439819 0.441184 0.443287 0.44634 0.450628 0.456523 0.464522 0.475271 0.489624 0.508678 0.533839 0.566836 0.609735 0.664782 0.734104 0.81904 0.919226 1.03154 1.14967 1.26492 1.36855 1.45437 1.52023 1.56756 1.59986 1.621 1.6344 1.64262 1.6475 1.65021 1.65156 1.65202 1.65191 1.6514 1.65064 1.64967 1.64856 1.6473 1.64595 1.64448 1.64293 1.64127 1.63952 1.63766 1.63572 1.63367 1.63154 1.62931 1.627 1.62459 1.62211 1.61954 1.61692 1.61423 1.6115 1.60872 1.60592 1.6031 1.6003 1.59751 1.59478 1.59209 1.58949 1.58698 1.58461 1.58237 1.58031 1.57842 1.57675 1.5753 1.57409 1.57313 1.57244 1.57202 1.57189 1.57202 1.57244 1.57313 1.57409 1.5753 1.57675 1.57842 1.58031 1.58237 1.58461 1.58698 1.58949 1.59209 1.59478 1.59751 1.6003 1.6031 1.60592 1.60872 1.6115 1.61423 1.61692 1.61954 1.62211 1.62459 1.627 1.62931 1.63154 1.63367 1.63572 1.63766 1.63952 1.64127 1.64293 1.64449 1.64595 1.6473 1.64856 1.64967 1.65064 1.6514 1.65191 1.65202 1.65156 1.65021 1.6475 1.64262 1.63439 1.62099 1.59985 1.56756 1.52022 1.45437 1.36856 1.26493 1.14969 1.03157 0.919264 0.819084 0.734153 0.664835 0.609788 0.566886 0.533883 0.508713 0.489644 0.47527 0.464493 0.45646 0.450522 0.446181 0.443065 0.440889 0.439441 0.438559 0.438124 0.438042 0.438244 0.438677 0.4393 0.440079 0.440988 0.442005 0.443109 0.444282 0.445507 0.446768 0.448047 0.449329 0.450596 0.451831 0.453018 0.454141 0.455181 0.456125 0.456955 0.457655 0.458209 0.458599 0.458805 0.460535 0.460312 0.459889 0.459287 0.458523 0.457617 0.456585 0.455446 0.454218 0.452919 0.451567 0.450183 0.448784 0.44739 0.44602 0.444694 0.443429 0.442249 0.441172 0.440225 0.439434 0.438833 0.438462 0.438374 0.438634 0.439332 0.440579 0.442529 0.44538 0.449401 0.454941 0.462466 0.472585 0.486099 0.504042 0.527738 0.558834 0.599308 0.651363 0.717169 0.798291 0.894838 1.0044 1.12146 1.2378 1.34454 1.43474 1.50529 1.55685 1.59252 1.61614 1.63128 1.64067 1.64632 1.64955 1.65124 1.65193 1.65198 1.65159 1.65093 1.65004 1.64901 1.64783 1.64656 1.64517 1.64371 1.64214 1.64049 1.63875 1.63693 1.63502 1.63303 1.63096 1.62881 1.62658 1.62429 1.62193 1.61951 1.61704 1.61454 1.612 1.60945 1.60688 1.60433 1.6018 1.59931 1.59688 1.59452 1.59226 1.59011 1.58809 1.58622 1.58452 1.58301 1.5817 1.58061 1.57974 1.57912 1.57874 1.57862 1.57874 1.57912 1.57974 1.58061 1.5817 1.58301 1.58452 1.58622 1.58809 1.59011 1.59226 1.59452 1.59688 1.59931 1.6018 1.60433 1.60688 1.60945 1.612 1.61454 1.61704 1.61951 1.62193 1.62429 1.62658 1.62881 1.63096 1.63303 1.63502 1.63693 1.63875 1.64049 1.64214 1.64371 1.64517 1.64656 1.64783 1.64901 1.65004 1.65093 1.65159 1.65198 1.65193 1.65124 1.64955 1.64632 1.64067 1.63127 1.61614 1.59252 1.55685 1.50529 1.43474 1.34454 1.23781 1.12148 1.00443 0.894876 0.798336 0.717218 0.651415 0.599361 0.558884 0.527782 0.504076 0.486118 0.472583 0.462436 0.454875 0.449291 0.445216 0.4423 0.440275 0.438943 0.438151 0.437784 0.437758 0.438007 0.438479 0.439136 0.439948 0.440887 0.441934 0.443069 0.444273 0.445531 0.446825 0.448139 0.449457 0.45076 0.452033 0.453257 0.454415 0.455491 0.456466 0.457325 0.458049 0.458623 0.459026 0.459239 0.460928 0.460699 0.460265 0.459646 0.458861 0.457929 0.456869 0.455699 0.454438 0.453106 0.451721 0.450303 0.448871 0.447445 0.446043 0.444685 0.44339 0.442178 0.44107 0.44009 0.439263 0.438621 0.438203 0.438058 0.438247 0.438854 0.439984 0.441781 0.444431 0.448185 0.45337 0.460422 0.46991 0.482584 0.499413 0.521643 0.550826 0.588851 0.637857 0.700036 0.777135 0.869699 0.976029 1.09143 1.20833 1.31788 1.41249 1.48804 1.54428 1.5838 1.61031 1.62749 1.63828 1.64487 1.64871 1.65081 1.65178 1.65202 1.65178 1.65122 1.65043 1.64948 1.64838 1.64719 1.64589 1.64451 1.64303 1.64149 1.63986 1.63817 1.63638 1.63454 1.63261 1.63063 1.62857 1.62646 1.62429 1.62209 1.61983 1.61755 1.61524 1.61292 1.61059 1.60829 1.606 1.60376 1.60156 1.59945 1.59741 1.59548 1.59367 1.592 1.59048 1.58913 1.58795 1.58698 1.5862 1.58565 1.58531 1.5852 1.58531 1.58565 1.5862 1.58698 1.58795 1.58913 1.59048 1.592 1.59367 1.59548 1.59741 1.59945 1.60156 1.60376 1.606 1.60829 1.61059 1.61292 1.61524 1.61755 1.61983 1.62209 1.62429 1.62646 1.62857 1.63063 1.63261 1.63454 1.63638 1.63817 1.63986 1.64149 1.64303 1.64451 1.64589 1.64719 1.64838 1.64948 1.65043 1.65122 1.65178 1.65202 1.65178 1.65081 1.64871 1.64487 1.63828 1.62749 1.61031 1.58379 1.54427 1.48803 1.41249 1.31788 1.20834 1.09145 0.976059 0.869737 0.777181 0.700086 0.63791 0.588904 0.550876 0.521687 0.499448 0.482604 0.469908 0.460391 0.453303 0.448072 0.444263 0.441547 0.439674 0.438457 0.437753 0.437456 0.437485 0.437779 0.438289 0.43898 0.439823 0.440791 0.441867 0.44303 0.444264 0.445551 0.446876 0.448223 0.449573 0.45091 0.452216 0.453473 0.454663 0.455769 0.456773 0.457657 0.458402 0.458992 0.459407 0.459626 0.461278 0.461044 0.4606 0.459966 0.459163 0.458209 0.457124 0.455927 0.454637 0.453275 0.451859 0.450411 0.448949 0.447493 0.446061 0.444675 0.443351 0.44211 0.44097