# vtk DataFile Version 3.0
Immiscible displacement
ASCII
DATASET RECTILINEAR_GRID
DIMENSIONS 200 200 1
X_COORDINATES 200 double
1 2 3 4 5 6 7 8 9 10 11 12 13 14 15 16 17 18 19 20 21 22 23 24 25 26 27 28 29 30 31 32 33 34 35 36 37 38 39 40 41 42 43 44 45 46 47 48 49 50 51 52 53 54 55 56 57 58 59 60 61 62 63 64 65 66 67 68 69 70 71 72 73 74 75 76 77 78 79 80 81 82 83 84 85 86 87 88 89 90 91 92 93 94 95 96 97 98 99 100 101 102 103 104 105 106 107 108 109 110 111 112 113 114 115 116 117 118 119 120 121 122 123 124 125 126 127 128 129 130 131 132 133 134 135 136 137 138 139 140 141 142 143 144 145 146 147 148 149 150 151 152 153 154 155 156 157 158 159 160 161 162 163 164 165 166 167 168 169 170 171 172 173 174 175 176 177 178 179 180 181 182 183 184 185 186 187 188 189 190 191 192 193 194 195 196 197 198 199 200 
Y_COORDINATES 200 double
1 2 3 4 5 6 7 8 9 10 11 12 13 14 15 16 17 18 19 20 21 22 23 24 25 26 27 28 29 30 31 32 33 34 35 36 37 38 39 40 41 42 43 44 45 46 47 48 49 50 51 52 53 54 55 56 57 58 59 60 61 62 63 64 65 66 67 68 69 70 71 72 73 74 75 76 77 78 79 80 81 82 83 84 85 86 87 88 89 90 91 92 93 94 95 96 97 98 99 100 101 102 103 104 105 106 107 108 109 110 111 112 113 114 115 116 117 118 119 120 121 122 123 124 125 126 127 128 129 130 131 132 133 134 135 136 137 138 139 140 141 142 143 144 145 146 147 148 149 150 151 152 153 154 155 156 157 158 159 160 161 162 163 164 165 166 167 168 169 170 171 172 173 174 175 176 177 178 179 180 181 182 183 184 185 186 187 188 189 190 191 192 193 194 195 196 197 198 199 200 
Z_COORDINATES 1 double
0
POINT_DATA 40000
SCALARS rho double 1
LOOKUP_TABLE default
0.452256 0.452445 0.452641 0.452755 0.452739 0.452573 0.452249 0.451777 0.451166 0.450436 0.449606 0.448701 0.44774 0.446752 0.445758 0.444786 0.443859 0.44301 0.442265 0.441664 0.441246 0.441067 0.441188 0.441697 0.442699 0.444342 0.44681 0.45036 0.455322 0.462144 0.471411 0.483908 0.50065 0.522967 0.552529 0.591393 0.641907 0.706492 0.78705 0.88407 0.995403 1.11545 1.23547 1.34576 1.43864 1.51068 1.56266 1.59805 1.62108 1.63554 1.64432 1.64946 1.65228 1.65365 1.65408 1.65391 1.65332 1.65245 1.65135 1.65007 1.6486 1.64699 1.6452 1.64326 1.64112 1.63882 1.63631 1.6336 1.63067 1.62753 1.62414 1.62052 1.61665 1.61255 1.6082 1.60362 1.59881 1.5938 1.58859 1.58323 1.57772 1.57213 1.56647 1.5608 1.55515 1.54959 1.54415 1.5389 1.53387 1.52912 1.52468 1.5206 1.51692 1.51367 1.51086 1.50854 1.50671 1.5054 1.50461 1.50435 1.50461 1.5054 1.50671 1.50854 1.51086 1.51367 1.51692 1.5206 1.52468 1.52912 1.53387 1.5389 1.54415 1.54959 1.55515 1.5608 1.56647 1.57213 1.57772 1.58323 1.58859 1.5938 1.59881 1.60362 1.6082 1.61255 1.61665 1.62052 1.62414 1.62753 1.63067 1.6336 1.63631 1.63882 1.64112 1.64326 1.6452 1.64699 1.6486 1.65007 1.65135 1.65245 1.65332 1.65391 1.65408 1.65365 1.65228 1.64946 1.64431 1.63553 1.62107 1.59805 1.56265 1.51067 1.43864 1.34576 1.23548 1.11546 0.995426 0.884101 0.787089 0.706536 0.641956 0.591444 0.552579 0.523014 0.50069 0.483936 0.471422 0.46213 0.455277 0.450275 0.446676 0.44415 0.442439 0.441359 0.440763 0.440545 0.44062 0.440927 0.441412 0.442039 0.442771 0.443583 0.444446 0.445342 0.446243 0.447133 0.447987 0.448787 0.449508 0.450135 0.450645 0.451025 0.45126 0.451349 0.451294 0.45112 0.450874 0.450654 0.45258 0.452701 0.452835 0.4529 0.452846 0.452652 0.452307 0.451819 0.451196 0.450459 0.449621 0.448712 0.447746 0.446756 0.445758 0.444784 0.443853 0.443002 0.442253 0.44165 0.441227 0.441044 0.441158 0.441661 0.442653 0.444285 0.446736 0.450267 0.4552 0.461987 0.471204 0.483638 0.500291 0.522495 0.551903 0.590573 0.64084 0.705132 0.785358 0.882054 0.993123 1.11305 1.23314 1.34369 1.43694 1.50939 1.56173 1.59742 1.62064 1.63524 1.6441 1.64931 1.65216 1.65355 1.65399 1.65383 1.65324 1.65238 1.65127 1.65 1.64853 1.64693 1.64513 1.64321 1.64107 1.63879 1.63628 1.63361 1.63068 1.62757 1.6242 1.62063 1.61678 1.61273 1.60841 1.60389 1.59912 1.59417 1.58901 1.58371 1.57825 1.57272 1.56711 1.5615 1.5559 1.5504 1.54499 1.53979 1.53479 1.53007 1.52565 1.52161 1.51793 1.5147 1.5119 1.5096 1.50777 1.50647 1.50567 1.50542 1.50567 1.50647 1.50777 1.5096 1.5119 1.5147 1.51793 1.52161 1.52565 1.53007 1.53479 1.53979 1.54499 1.5504 1.5559 1.5615 1.56711 1.57272 1.57825 1.58371 1.58901 1.59417 1.59912 1.60389 1.60841 1.61273 1.61678 1.62063 1.6242 1.62757 1.63068 1.63361 1.63628 1.63879 1.64107 1.64321 1.64513 1.64693 1.64853 1.65 1.65127 1.65238 1.65324 1.65383 1.65398 1.65355 1.65215 1.64931 1.6441 1.63524 1.62063 1.59741 1.56172 1.50938 1.43694 1.34369 1.23314 1.11306 0.993147 0.882086 0.785397 0.705176 0.640889 0.590623 0.551952 0.522539 0.500328 0.483661 0.47121 0.461968 0.455148 0.450175 0.446594 0.444083 0.442383 0.441312 0.440722 0.440511 0.440589 0.440902 0.44139 0.442022 0.442756 0.443573 0.44444 0.44534 0.446245 0.447141 0.448 0.448807 0.449536 0.450174 0.450697 0.451094 0.451352 0.451472 0.451457 0.451336 0.451157 0.45101 0.453073 0.453133 0.453188 0.45318 0.453065 0.452821 0.452437 0.451919 0.451272 0.450516 0.449663 0.448742 0.447767 0.446768 0.445762 0.444781 0.443844 0.442985 0.442229 0.441618 0.441187 0.440994 0.441096 0.441585 0.442558 0.444166 0.446588 0.450079 0.454959 0.461675 0.470799 0.483107 0.499594 0.521576 0.550694 0.588989 0.638784 0.702509 0.7821 0.878163 0.98872 1.1084 1.2286 1.33963 1.43361 1.50685 1.5599 1.59616 1.61979 1.63467 1.64371 1.64903 1.65194 1.65339 1.65384 1.65371 1.65312 1.65227 1.65117 1.6499 1.64844 1.64685 1.64507 1.64315 1.64104 1.63878 1.6363 1.63365 1.63076 1.62769 1.62437 1.62085 1.61707 1.61308 1.60884 1.6044 1.59971 1.59486 1.58979 1.58459 1.57924 1.57381 1.5683 1.56279 1.55728 1.55187 1.54655 1.54143 1.53649 1.53184 1.52748 1.52348 1.51984 1.51664 1.51387 1.51159 1.50977 1.50848 1.50769 1.50743 1.50769 1.50848 1.50977 1.51159 1.51387 1.51664 1.51984 1.52348 1.52748 1.53184 1.53649 1.54143 1.54655 1.55187 1.55728 1.56279 1.5683 1.57381 1.57924 1.58459 1.58979 1.59486 1.59971 1.6044 1.60884 1.61308 1.61707 1.62085 1.62437 1.62769 1.63076 1.63365 1.6363 1.63878 1.64104 1.64315 1.64507 1.64685 1.64844 1.6499 1.65117 1.65227 1.65312 1.65371 1.65384 1.65338 1.65194 1.64902 1.64371 1.63466 1.61978 1.59615 1.5599 1.50684 1.4336 1.33963 1.22861 1.10841 0.988747 0.878198 0.782141 0.702554 0.638833 0.589038 0.550741 0.521617 0.499626 0.483124 0.470797 0.461647 0.454896 0.449973 0.446431 0.443949 0.442271 0.441217 0.440641 0.440441 0.440529 0.44085 0.441347 0.441987 0.44273 0.443554 0.44443 0.445339 0.446255 0.447162 0.448034 0.448856 0.449604 0.450263 0.450813 0.451244 0.451545 0.451718 0.451769 0.451726 0.451632 0.451552 0.453665 0.453674 0.453656 0.45357 0.453382 0.453076 0.452641 0.452079 0.451397 0.450613 0.449737 0.448795 0.447804 0.44679 0.445771 0.444778 0.44383 0.44296 0.442193 0.441569 0.441125 0.440917 0.441001 0.441468 0.442414 0.443989 0.446366 0.449799 0.454603 0.461218 0.470207 0.482335 0.498583 0.520247 0.548948 0.586704 0.63582 0.698726 0.777397 0.872539 0.982337 1.10163 1.22196 1.33367 1.42868 1.50308 1.5572 1.59429 1.61854 1.63384 1.64315 1.64864 1.65166 1.65317 1.65367 1.65356 1.653 1.65216 1.65107 1.64981 1.64836 1.64679 1.64502 1.64313 1.64104 1.63881 1.63636 1.63376 1.63092 1.62791 1.62466 1.62121 1.61751 1.61362 1.60947 1.60514 1.60057 1.59584 1.5909 1.58584 1.58062 1.57533 1.56996 1.56459 1.55921 1.55393 1.54873 1.54372 1.53889 1.53433 1.53005 1.52612 1.52254 1.5194 1.51666 1.51441 1.51262 1.51135 1.51057 1.51032 1.51057 1.51135 1.51262 1.51441 1.51666 1.5194 1.52254 1.52612 1.53005 1.53433 1.53889 1.54372 1.54873 1.55393 1.55921 1.56459 1.56996 1.57533 1.58062 1.58584 1.5909 1.59584 1.60057 1.60514 1.60947 1.61362 1.61751 1.62121 1.62466 1.62791 1.63092 1.63376 1.63637 1.63881 1.64104 1.64313 1.64502 1.64679 1.64836 1.64981 1.65107 1.65216 1.653 1.65356 1.65367 1.65317 1.65166 1.64864 1.64314 1.63383 1.61853 1.59429 1.55719 1.50308 1.42868 1.33367 1.22198 1.10165 0.982367 0.872575 0.77744 0.698772 0.635868 0.586751 0.548992 0.520284 0.498609 0.482345 0.470195 0.461178 0.454527 0.449678 0.446192 0.443752 0.442106 0.441078 0.440522 0.440339 0.440442 0.440776 0.441285 0.441937 0.442693 0.44353 0.44442 0.445344 0.446276 0.447201 0.448093 0.448938 0.449714 0.450405 0.450994 0.451473 0.45183 0.452069 0.452198 0.452238 0.452224 0.452198 0.454314 0.454283 0.4542 0.454039 0.453778 0.453404 0.452909 0.452296 0.451571 0.450749 0.449842 0.448874 0.447859 0.446825 0.445788 0.444778 0.443813 0.442928 0.442145 0.441505 0.441042 0.440814 0.440875 0.441314 0.442225 0.443755 0.446076 0.449435 0.454141 0.460627 0.469443 0.481342 0.497285 0.518544 0.546713 0.58378 0.632028 0.693885 0.771372 0.865313 0.97411 1.09286 1.21333 1.32586 1.4222 1.4981 1.5536 1.59181 1.61688 1.63274 1.64242 1.64815 1.65132 1.65292 1.65348 1.65341 1.65288 1.65206 1.65098 1.64975 1.64831 1.64676 1.64502 1.64315 1.6411 1.6389 1.63651 1.63395 1.63118 1.62824 1.62506 1.6217 1.6181 1.61432 1.6103 1.6061 1.60167 1.59708 1.5923 1.5874 1.58235 1.57723 1.57203 1.56683 1.56162 1.55649 1.55145 1.54658 1.54188 1.53744 1.53327 1.52944 1.52595 1.52287 1.52019 1.51799 1.51624 1.51499 1.51422 1.51397 1.51422 1.51499 1.51624 1.51799 1.52019 1.52287 1.52595 1.52944 1.53327 1.53744 1.54188 1.54658 1.55145 1.55649 1.56162 1.56683 1.57203 1.57723 1.58235 1.5874 1.5923 1.59708 1.60167 1.6061 1.6103 1.61432 1.6181 1.6217 1.62506 1.62824 1.63118 1.63395 1.63651 1.6389 1.6411 1.64315 1.64502 1.64676 1.64831 1.64975 1.65098 1.65206 1.65288 1.65341 1.65348 1.65292 1.65132 1.64814 1.64241 1.63273 1.61687 1.59181 1.55359 1.4981 1.4222 1.32586 1.21334 1.09288 0.974143 0.865353 0.771416 0.693932 0.632076 0.583826 0.546754 0.518576 0.497304 0.481344 0.469421 0.460574 0.454049 0.449296 0.445882 0.443497 0.441893 0.440898 0.440368 0.440207 0.44033 0.440682 0.441208 0.441876 0.442648 0.443503 0.444411 0.445355 0.446309 0.447258 0.448177 0.449053 0.449864 0.450597 0.451234 0.451768 0.45219 0.452502 0.452709 0.45283 0.452885 0.452903 0.454995 0.454931 0.454791 0.454562 0.45423 0.453788 0.453229 0.452561 0.451786 0.450921 0.449978 0.448977 0.447933 0.446873 0.445813 0.444781 0.443796 0.44289 0.442087 0.441426 0.440942 0.440688 0.440721 0.441125 0.441995 0.443471 0.445724 0.448993 0.453583 0.459914 0.468526 0.480151 0.495729 0.516505 0.544039 0.580283 0.627491 0.688087 0.764141 0.856617 0.964166 1.0822 1.20276 1.31623 1.41415 1.49187 1.54908 1.58869 1.61479 1.63136 1.64152 1.64755 1.65092 1.65265 1.65328 1.65327 1.65277 1.65198 1.65092 1.64971 1.6483 1.64677 1.64506 1.64323 1.64121 1.63907 1.63672 1.63423 1.63153 1.62867 1.62558 1.62233 1.61884 1.61519 1.6113 1.60724 1.60298 1.59856 1.59396 1.58924 1.58438 1.57946 1.57445 1.56945 1.56443 1.5595 1.55464 1.54994 1.5454 1.54111 1.53707 1.53336 1.52997 1.52698 1.52439 1.52224 1.52054 1.51932 1.51857 1.51833 1.51857 1.51932 1.52054 1.52224 1.52439 1.52698 1.52997 1.53336 1.53707 1.54111 1.5454 1.54994 1.55464 1.5595 1.56443 1.56945 1.57445 1.57946 1.58438 1.58924 1.59396 1.59856 1.60298 1.60724 1.6113 1.61519 1.61884 1.62233 1.62558 1.62867 1.63153 1.63423 1.63672 1.63907 1.64121 1.64323 1.64506 1.64677 1.6483 1.64971 1.65092 1.65198 1.65276 1.65326 1.65328 1.65264 1.65092 1.64755 1.64151 1.63136 1.61478 1.58869 1.54908 1.49187 1.41415 1.31624 1.20278 1.08223 0.964202 0.856659 0.764187 0.688134 0.627538 0.580326 0.544076 0.516532 0.495742 0.480143 0.468492 0.459848 0.453476 0.448837 0.445509 0.443189 0.441637 0.440682 0.440185 0.440051 0.440198 0.44057 0.441117 0.441805 0.442599 0.443474 0.444405 0.445373 0.446354 0.447332 0.448285 0.449198 0.45005 0.45083 0.451521 0.452116 0.452606 0.452991 0.453274 0.453468 0.453583 0.453637 0.455689 0.455597 0.455408 0.455118 0.454719 0.45421 0.453589 0.452862 0.452036 0.451124 0.450138 0.4491 0.448023 0.446933 0.445845 0.444787 0.443778 0.442848 0.442021 0.441336 0.440825 0.440543 0.440542 0.440906 0.441728 0.443143 0.445317 0.448484 0.45294 0.459095 0.467471 0.478782 0.493944 0.514168 0.540975 0.576275 0.622289 0.68143 0.75582 0.846575 0.952624 1.06975 1.19031 1.3048 1.40451 1.48436 1.5436 1.5849 1.61224 1.62969 1.64043 1.64684 1.65046 1.65234 1.65308 1.65312 1.65267 1.65192 1.65089 1.64971 1.64833 1.64683 1.64515 1.64336 1.64139 1.6393 1.63702 1.6346 1.63198 1.6292 1.62622 1.62308 1.61972 1.6162 1.61246 1.60857 1.60447 1.60024 1.59584 1.59132 1.58668 1.58197 1.57718 1.5724 1.5676 1.56288 1.55822 1.55372 1.54937 1.54525 1.54137 1.5378 1.53454 1.53166 1.52915 1.52708 1.52544 1.52426 1.52354 1.52331 1.52354 1.52426 1.52544 1.52708 1.52915 1.53166 1.53454 1.5378 1.54137 1.54525 1.54937 1.55372 1.55822 1.56288 1.5676 1.5724 1.57718 1.58197 1.58668 1.59132 1.59584 1.60024 1.60447 1.60857 1.61246 1.6162 1.61972 1.62308 1.62622 1.6292 1.63198 1.6346 1.63702 1.6393 1.64139 1.64336 1.64515 1.64683 1.64833 1.64971 1.65089 1.65192 1.65267 1.65312 1.65307 1.65233 1.65045 1.64684 1.64043 1.62969 1.61224 1.58489 1.5436 1.48436 1.40451 1.30481 1.19034 1.06978 0.952663 0.846619 0.755868 0.681478 0.622336 0.576317 0.541009 0.51419 0.49395 0.478766 0.467427 0.459015 0.452817 0.448309 0.445081 0.442837 0.441344 0.440435 0.439976 0.439873 0.440048 0.440446 0.441017 0.441728 0.442545 0.443446 0.444403 0.445399 0.446411 0.447423 0.448413 0.449367 0.450266 0.451097 0.451845 0.452502 0.453059 0.453515 0.453869 0.454127 0.454295 0.454378 0.456381 0.456264 0.456032 0.455688 0.455229 0.454658 0.453975 0.453191 0.45231 0.451349 0.450319 0.44924 0.448127 0.447002 0.445883 0.444796 0.443759 0.442802 0.441949 0.441236 0.440696 0.44038 0.440343 0.440662 0.441429 0.442776 0.444863 0.447917 0.452224 0.458181 0.466297 0.47726 0.49196 0.511569 0.537568 0.571819 0.616501 0.674012 0.746522 0.835307 0.939599 1.05559 1.17604 1.29156 1.39323 1.4755 1.53709 1.58036 1.6092 1.6277 1.63914 1.64601 1.64992 1.65199 1.65285 1.65299 1.65259 1.65188 1.65089 1.64974 1.6484 1.64693 1.6453 1.64355 1.64164 1.6396 1.63739 1.63504 1.63251 1.62983 1.62696 1.62394 1.62071 1.61734 1.61376 1.61005 1.60614 1.60211 1.59791 1.59361 1.5892 1.58472 1.58017 1.57562 1.57106 1.56657 1.56215 1.55786 1.55372 1.5498 1.54609 1.54269 1.53957 1.53682 1.53442 1.53244 1.53086 1.52974 1.52904 1.52882 1.52904 1.52974 1.53086 1.53244 1.53442 1.53682 1.53957 1.54269 1.54609 1.5498 1.55372 1.55786 1.56215 1.56657 1.57106 1.57562 1.58017 1.58472 1.5892 1.59361 1.59791 1.60211 1.60614 1.61005 1.61376 1.61734 1.62071 1.62394 1.62696 1.62983 1.63251 1.63504 1.63739 1.6396 1.64164 1.64355 1.6453 1.64693 1.6484 1.64974 1.65089 1.65188 1.65259 1.65298 1.65285 1.65199 1.64992 1.64601 1.63913 1.62769 1.60919 1.58035 1.53709 1.4755 1.39324 1.29157 1.17607 1.05563 0.939641 0.835354 0.746571 0.67406 0.616547 0.571859 0.537599 0.511587 0.491959 0.477236 0.466242 0.458088 0.452085 0.447723 0.444606 0.442447 0.441019 0.440162 0.439745 0.439678 0.439884 0.44031 0.440908 0.441645 0.442489 0.443417 0.444404 0.445432 0.446478 0.447526 0.448557 0.449555 0.450503 0.451387 0.452193 0.452912 0.453534 0.454056 0.454474 0.45479 0.455002 0.455111 0.457059 0.456921 0.456652 0.456259 0.455745 0.455116 0.454376 0.453535 0.452602 0.451591 0.450515 0.449393 0.44824 0.447079 0.445927 0.444808 0.443741 0.442754 0.441871 0.441127 0.440555 0.440204 0.440126 0.440396 0.441104 0.442377 0.444368 0.447299 0.451445 0.457188 0.46502 0.475606 0.489803 0.508746 0.533867 0.566974 0.610201 0.665924 0.736356 0.822932 0.925204 1.03982 1.15997 1.27649 1.38026 1.4652 1.52947 1.57501 1.60559 1.62533 1.63761 1.64504 1.6493 1.6516 1.65262 1.65285 1.65253 1.65187 1.65093 1.64981 1.64851 1.64708 1.6455 1.6438 1.64194 1.63997 1.63783 1.63557 1.63313 1.63056 1.6278 1.6249 1.62182 1.6186 1.61519 1.61166 1.60795 1.60412 1.60014 1.59608 1.5919 1.58767 1.58337 1.57907 1.57477 1.57053 1.56635 1.5623 1.55838 1.55467 1.55117 1.54794 1.54499 1.54238 1.5401 1.53822 1.53672 1.53565 1.53499 1.53478 1.53499 1.53565 1.53672 1.53822 1.5401 1.54238 1.54499 1.54794 1.55117 1.55467 1.55838 1.5623 1.56635 1.57053 1.57477 1.57907 1.58337 1.58767 1.5919 1.59608 1.60014 1.60412 1.60795 1.61166 1.61519 1.6186 1.62182 1.6249 1.6278 1.63056 1.63313 1.63557 1.63783 1.63997 1.64194 1.6438 1.6455 1.64708 1.64851 1.64981 1.65092 1.65187 1.65252 1.65285 1.65262 1.6516 1.6493 1.64503 1.63761 1.62533 1.60559 1.57501 1.52946 1.4652 1.38028 1.27651 1.16 1.03986 0.925249 0.82298 0.736406 0.665972 0.610246 0.567012 0.533894 0.508759 0.489796 0.475573 0.464955 0.457083 0.451291 0.447088 0.444092 0.442025 0.440669 0.439868 0.439498 0.43947 0.43971 0.440166 0.440793 0.441559 0.442432 0.44339 0.444409 0.44547 0.446552 0.447639 0.448713 0.449757 0.450754 0.451692 0.452555 0.453334 0.454018 0.454601 0.455077 0.455442 0.455693 0.455824 0.457714 0.457558 0.457257 0.456822 0.456258 0.455576 0.454782 0.453887 0.452902 0.451841 0.450719 0.449554 0.448361 0.447162 0.445974 0.444821 0.443722 0.442704 0.441789 0.441013 0.440407 0.440017 0.439895 0.440114 0.440758 0.441951 0.443842 0.44664 0.450614 0.456129 0.463658 0.473841 0.487501 0.505732 0.529914 0.561798 0.603464 0.657256 0.725427 0.809564 0.909548 1.02251 1.14215 1.25958 1.36552 1.45335 1.52061 1.56875 1.60136 1.62255 1.63582 1.6439 1.64859 1.65116 1.65236 1.65271 1.65247 1.65188 1.65099 1.64992 1.64866 1.64728 1.64574 1.6441 1.6423 1.6404 1.63834 1.63616 1.63382 1.63136 1.62872 1.62596 1.62303 1.61997 1.61673 1.61338 1.60988 1.60626 1.60251 1.59869 1.59475 1.59078 1.58674 1.58271 1.57867 1.57469 1.57077 1.56697 1.56329 1.55981 1.55652 1.55349 1.55071 1.54826 1.54612 1.54435 1.54294 1.54193 1.54131 1.54111 1.54131 1.54193 1.54294 1.54435 1.54612 1.54826 1.55071 1.55349 1.55652 1.55981 1.56329 1.56697 1.57077 1.57469 1.57867 1.58271 1.58674 1.59078 1.59475 1.59869 1.60251 1.60626 1.60988 1.61338 1.61673 1.61997 1.62303 1.62596 1.62872 1.63136 1.63382 1.63616 1.63834 1.6404 1.6423 1.6441 1.64574 1.64728 1.64866 1.64992 1.65099 1.65187 1.65247 1.65271 1.65236 1.65116 1.64858 1.64389 1.63581 1.62254 1.60135 1.56875 1.52061 1.45336 1.36553 1.2596 1.14219 1.02255 0.909594 0.809613 0.725478 0.657305 0.603509 0.561835 0.529939 0.505741 0.487489 0.4738 0.463583 0.456011 0.450446 0.446413 0.443546 0.441577 0.440298 0.439559 0.439238 0.439251 0.439527 0.440016 0.440674 0.44147 0.442374 0.443363 0.444415 0.445511 0.446631 0.447759 0.448876 0.449966 0.451013 0.452003 0.452921 0.453757 0.454498 0.455136 0.455664 0.456074 0.456358 0.456508 0.458339 0.458168 0.457839 0.457366 0.456758 0.456028 0.455183 0.454238 0.453203 0.452095 0.450927 0.449719 0.448485 0.447248 0.446023 0.444835 0.443703 0.442651 0.441704 0.440894 0.440251 0.439822 0.439654 0.439818 0.440396 0.441505 0.443289 0.445949 0.44974 0.455015 0.462226 0.471984 0.48508 0.502561 0.525754 0.556347 0.596359 0.648096 0.713838 0.795316 0.89274 1.00375 1.12261 1.24078 1.34891 1.43983 1.51038 1.56147 1.5964 1.61927 1.63371 1.64256 1.64776 1.65066 1.65207 1.65256 1.65243 1.6519 1.65107 1.65006 1.64885 1.64752 1.64604 1.64445 1.64272 1.64089 1.63891 1.63683 1.63459 1.63223 1.62972 1.6271 1.62432 1.62142 1.61837 1.61521 1.6119 1.60851 1.60499 1.6014 1.59773 1.59401 1.59024 1.58648 1.58271 1.579 1.57534 1.57181 1.56838 1.56514 1.56207 1.55924 1.55666 1.55437 1.55237 1.55072 1.5494 1.54846 1.54788 1.54769 1.54788 1.54846 1.5494 1.55072 1.55237 1.55437 1.55666 1.55924 1.56207 1.56514 1.56838 1.57181 1.57534 1.579 1.58271 1.58648 1.59024 1.59401 1.59773 1.6014 1.60499 1.60851 1.6119 1.61521 1.61837 1.62142 1.62432 1.6271 1.62972 1.63223 1.63459 1.63683 1.63891 1.64089 1.64272 1.64445 1.64604 1.64752 1.64885 1.65006 1.65107 1.6519 1.65242 1.65256 1.65207 1.65065 1.64775 1.64255 1.6337 1.61927 1.59639 1.56147 1.51039 1.43984 1.34893 1.2408 1.12264 1.00379 0.892788 0.795367 0.713889 0.648145 0.596403 0.556382 0.525777 0.502566 0.485063 0.471937 0.462142 0.454887 0.449559 0.445705 0.442975 0.44111 0.439913 0.439237 0.438968 0.439025 0.439339 0.439862 0.440552 0.44138 0.442315 0.443337 0.444423 0.445555 0.446713 0.447881 0.449041 0.450177 0.451273 0.452314 0.453284 0.454173 0.454966 0.455655 0.456228 0.456677 0.45699 0.457155 0.45893 0.458745 0.458392 0.457886 0.457239 0.456465 0.455575 0.454583 0.453501 0.452347 0.451135 0.449883 0.44861 0.447333 0.446073 0.444849 0.443683 0.442598 0.441617 0.440771 0.440091 0.43962 0.439405 0.439513 0.440022 0.441044 0.442717 0.445232 0.448835 0.45386 0.460739 0.470056 0.482565 0.499265 0.521427 0.550672 0.588953 0.638528 0.701689 0.780301 0.874893 0.983627 1.10139 1.22007 1.33034 1.4245 1.49864 1.55301 1.59059 1.61542 1.63122 1.64098 1.64678 1.65007 1.65174 1.6524 1.65238 1.65195 1.65119 1.65023 1.64907 1.6478 1.64637 1.64485 1.64319 1.64143 1.63954 1.63755 1.63541 1.63317 1.63079 1.62831 1.62568 1.62294 1.62007 1.6171 1.61401 1.61084 1.60755 1.60421 1.60078 1.59733 1.59383 1.59034 1.58685 1.58341 1.58003 1.57676 1.57359 1.57059 1.56776 1.56515 1.56276 1.56064 1.55879 1.55726 1.55604 1.55517 1.55464 1.55446 1.55464 1.55517 1.55604 1.55726 1.55879 1.56064 1.56276 1.56515 1.56776 1.57059 1.57359 1.57676 1.58003 1.58341 1.58685 1.59034 1.59383 1.59733 1.60078 1.60421 1.60755 1.61084 1.61401 1.6171 1.62007 1.62294 1.62568 1.62831 1.63079 1.63317 1.63541 1.63755 1.63954 1.64143 1.64319 1.64485 1.64637 1.6478 1.64907 1.65023 1.65118 1.65194 1.65238 1.6524 1.65173 1.65007 1.64677 1.64097 1.63121 1.61542 1.59059 1.55301 1.49864 1.42451 1.33035 1.2201 1.10142 0.98367 0.874943 0.780352 0.701741 0.638577 0.588996 0.550706 0.521448 0.499267 0.482543 0.470002 0.460647 0.453722 0.448642 0.444975 0.442386 0.44063 0.439517 0.438907 0.438693 0.438794 0.439147 0.439706 0.440429 0.441289 0.442256 0.443311 0.444431 0.445599 0.446795 0.448003 0.449206 0.450387 0.451529 0.452617 0.453637 0.454575 0.455416 0.45615 0.456764 0.457246 0.457584 0.457763 0.459483 0.459286 0.458912 0.458378 0.457696 0.456883 0.455951 0.454915 0.45379 0.452592 0.451337 0.450045 0.448732 0.447418 0.44612 0.444862 0.443661 0.442542 0.441528 0.440646 0.439929 0.439415 0.439152 0.439201 0.43964 0.440572 0.442131 0.444498 0.447907 0.452674 0.459212 0.468074 0.479978 0.495874 0.516973 0.544825 0.581311 0.628632 0.68908 0.764632 0.856125 0.962242 1.07853 1.19743 1.3097 1.40718 1.48519 1.54321 1.58381 1.61089 1.62828 1.63911 1.64562 1.64937 1.65135 1.65221 1.65234 1.652 1.65132 1.65042 1.64933 1.64811 1.64675 1.64529 1.64371 1.64203 1.64022 1.63832 1.63629 1.63417 1.63192 1.62957 1.62709 1.62453 1.62184 1.61906 1.61617 1.61322 1.61017 1.60706 1.60389 1.6007 1.59747 1.59425 1.59104 1.58788 1.58477 1.58176 1.57885 1.5761 1.5735 1.57111 1.56891 1.56697 1.56528 1.56388 1.56276 1.56196 1.56147 1.56132 1.56147 1.56196 1.56276 1.56388 1.56528 1.56697 1.56891 1.57111 1.5735 1.5761 1.57885 1.58176 1.58477 1.58788 1.59104 1.59425 1.59747 1.6007 1.60389 1.60706 1.61017 1.61322 1.61617 1.61906 1.62184 1.62453 1.6271 1.62957 1.63192 1.63417 1.63629 1.63832 1.64022 1.64203 1.64371 1.64529 1.64675 1.64811 1.64933 1.65042 1.65132 1.652 1.65233 1.65221 1.65134 1.64937 1.64562 1.63911 1.62828 1.61089 1.5838 1.54321 1.48519 1.40719 1.30971 1.19746 1.07857 0.962287 0.856175 0.764684 0.689132 0.628681 0.581354 0.544858 0.516992 0.495872 0.479952 0.468015 0.459113 0.452527 0.447703 0.444228 0.441786 0.440141 0.439115 0.438574 0.438415 0.438562 0.438955 0.439549 0.440306 0.441197 0.442197 0.443284 0.444439 0.445641 0.446875 0.448122 0.449366 0.450589 0.451776 0.45291 0.453975 0.454957 0.455842 0.456616 0.457266 0.457778 0.458137 0.458327 0.459995 0.459789 0.459397 0.458838 0.458125 0.457277 0.456307 0.455231 0.454065 0.452827 0.451532 0.450201 0.448849 0.447498 0.446166 0.444873 0.443638 0.442486 0.441437 0.440521 0.439765 0.439209 0.438897 0.438887 0.439254 0.440096 0.441539 0.443755 0.446964 0.451469 0.457658 0.466056 0.477342 0.492416 0.512428 0.538853 0.573496 0.618489 0.676108 0.748424 0.836556 0.939706 1.05412 1.17285 1.28689 1.38772 1.46982 1.53187 1.57587 1.60555 1.6248 1.63689 1.64424 1.64854 1.65088 1.65199 1.65227 1.65205 1.65146 1.65064 1.64962 1.64846 1.64717 1.64577 1.64426 1.64266 1.64094 1.63914 1.63722 1.63521 1.63309 1.63088 1.62856 1.62616 1.62365 1.62106 1.61838 1.61564 1.61281 1.60995 1.60703 1.60409 1.60113 1.59818 1.59524 1.59235 1.58951 1.58677 1.58412 1.58162 1.57925 1.57708 1.57508 1.57332 1.57178 1.57051 1.5695 1.56877 1.56832 1.56818 1.56832 1.56877 1.5695 1.57051 1.57178 1.57332 1.57508 1.57708 1.57925 1.58162 1.58412 1.58677 1.58951 1.59235 1.59524 1.59818 1.60113 1.60409 1.60703 1.60995 1.61281 1.61564 1.61838 1.62106 1.62365 1.62616 1.62856 1.63088 1.63309 1.63521 1.63722 1.63914 1.64094 1.64266 1.64426 1.64577 1.64717 1.64846 1.64962 1.65064 1.65146 1.65205 1.65227 1.65198 1.65088 1.64854 1.64424 1.63689 1.62479 1.60555 1.57586 1.53187 1.46983 1.38773 1.28691 1.17288 1.05415 0.939752 0.836608 0.748477 0.676161 0.618538 0.573538 0.538885 0.512445 0.492412 0.477312 0.465993 0.457554 0.451315 0.446752 0.443473 0.44118 0.439649 0.438711 0.438239 0.438136 0.43833 0.438763 0.439393 0.440183 0.441107 0.442138 0.443257 0.444445 0.445682 0.446952 0.448236 0.449519 0.450783 0.452011 0.453187 0.454294 0.455317 0.456241 0.457051 0.457732 0.458269 0.458646 0.458846 0.460467 0.460252 0.459845 0.459264 0.458524 0.457645 0.45664 0.455528 0.454325 0.453049 0.451716 0.450348 0.44896 0.447574 0.446207 0.44488 0.443613 0.442428 0.441346 0.440395 0.439601 0.439003 0.438642 0.438574 0.438868 0.439619 0.440944 0.443007 0.446016 0.450254 0.45609 0.464018 0.474678 0.488919 0.507828 0.532804 0.565567 0.608175 0.662872 0.731796 0.81632 0.916145 1.02823 1.14635 1.26184 1.36593 1.45232 1.51875 1.56657 1.59924 1.62065 1.63423 1.64258 1.64754 1.65031 1.6517 1.65219 1.6521 1.65162 1.65088 1.64993 1.64884 1.64761 1.64629 1.64485 1.64333 1.6417 1.64 1.63818 1.6363 1.6343 1.63223 1.63006 1.62782 1.62548 1.62309 1.6206 1.61807 1.61547 1.61284 1.61016 1.60748 1.60477 1.60208 1.59941 1.59679 1.59421 1.59173 1.58934 1.58707 1.58494 1.58297 1.58118 1.57959 1.57821 1.57706 1.57615 1.5755 1.5751 1.57497 1.5751 1.5755 1.57615 1.57706 1.57821 1.57959 1.58118 1.58297 1.58494 1.58707 1.58934 1.59173 1.59421 1.59679 1.59941 1.60208 1.60477 1.60748 1.61016 1.61284 1.61547 1.61807 1.6206 1.62309 1.62548 1.62782 1.63006 1.63223 1.6343 1.6363 1.63819 1.64 1.6417 1.64333 1.64485 1.64629 1.64761 1.64884 1.64993 1.65088 1.65162 1.6521 1.65219 1.6517 1.65031 1.64754 1.64258 1.63423 1.62064 1.59924 1.56657 1.51875 1.45232 1.36595 1.26186 1.14638 1.02827 0.916191 0.816372 0.731849 0.662925 0.608224 0.56561 0.532835 0.507844 0.488914 0.474646 0.463951 0.455981 0.450094 0.445795 0.442716 0.440573 0.439158 0.438309 0.437907 0.437861 0.438101 0.438574 0.439239 0.440062 0.441017 0.442079 0.44323 0.444449 0.445719 0.447023 0.448343 0.449663 0.450965 0.452231 0.453446 0.454592 0.455652 0.456611 0.457452 0.45816 0.458719 0.459112 0.459319 0.460897 0.460676 0.460255 0.459655 0.458892 0.457984 0.456949 0.455805 0.454567 0.453256 0.451888 0.450485 0.449063 0.447643 0.446244 0.444885 0.443587 0.44237 0.441255 0.44027 0.43944 0.4388 0.43839 0.438264 0.438486 0.439145 0.440353 0.442262 0.445069 0.44904 0.454521 0.461975 0.472006 0.485408 0.503207 0.526721 0.557583 0.597766 0.649467 0.714866 0.795555 0.891702 1.00099 1.11797 1.23449 1.34165 1.43243 1.50358 1.55568 1.59177 1.61569 1.63104 1.64057 1.64632 1.64961 1.65134 1.65206 1.65214 1.65177 1.65112 1.65025 1.64924 1.64808 1.64683 1.64547 1.64403 1.6425 1.64089 1.63918 1.63741 1.63554 1.63361 1.63158 1.6295 1.62734 1.62512 1.62284 1.62051 1.61813 1.61572 1.61328 1.61083 1.60838 1.60594 1.60353 1.60116 1.59884 1.59661 1.59446 1.59243 1.59052 1.58877 1.58716 1.58575 1.58451 1.58349 1.58268 1.5821 1.58174 1.58163 1.58174 1.5821 1.58268 1.58349 1.58451 1.58575 1.58716 1.58877 1.59052 1.59243 1.59446 1.59661 1.59884 1.60116 1.60353 1.60594 1.60838 1.61083 1.61328 1.61572 1.61813 1.62051 1.62284 1.62512 1.62734 1.6295 1.63158 1.63361 1.63554 1.63741 1.63918 1.64089 1.6425 1.64404 1.64547 1.64683 1.64808 1.64924 1.65025 1.65112 1.65177 1.65214 1.65206 1.65134 1.64961 1.64632 1.64057 1.63103 1.61569 1.59176 1.55567 1.50358 1.43243 1.34167 1.23451 1.118 1.00103 0.891749 0.795607 0.714919 0.64952 0.597815 0.557626 0.526752 0.503223 0.485402 0.471972 0.461906 0.454409 0.448875 0.444842 0.441963 0.439972 0.438673 0.437913 0.437581 0.437591 0.437877 0.43839 0.439089 0.439944 0.440929 0.442021 0.443201 0.444451 0.445752 0.447089 0.448442 0.449796 0.451133 0.452435 0.453685 0.454866 0.455959 0.456949 0.457818 0.45855 0.459128 0.459534 0.459748 0.461286 0.461059 0.460627 0.46001 0.459227 0.458295 0.457232 0.456058 0.454789 0.453446 0.452046 0.45061 0.449157 0.447706 0.446276 0.444887 0.443558 0.442311 0.441166 0.440147 0.439281 0.438601 0.438144 0.43796 0.438111 0.438679 0.43977 0.441526 0.444131 0.447836 0.452962 0.459943 0.469344 0.481909 0.498597 0.520646 0.549599 0.587336 0.63599 0.697756 0.774408 0.866539 0.972534 1.0878 1.20481 1.31473 1.40991 1.48608 1.5429 1.58288 1.60974 1.62717 1.63812 1.64481 1.64873 1.65088 1.65187 1.65214 1.65192 1.65138 1.6506 1.64966 1.64858 1.6474 1.64612 1.64477 1.64332 1.6418 1.6402 1.63854 1.6368 1.635 1.63312 1.63119 1.6292 1.62716 1.62506 1.62293 1.62075 1.61856 1.61635 1.61413 1.61192 1.60972 1.60755 1.60543 1.60336 1.60137 1.59945 1.59765 1.59595 1.59439 1.59297 1.59172 1.59063 1.58972 1.58901 1.58849 1.58818 1.58808 1.58818 1.58849 1.58901 1.58972 1.59063 1.59172 1.59297 1.59439 1.59595 1.59765 1.59945 1.60137 1.60336 1.60543 1.60755 1.60972 1.61192 1.61413 1.61635 1.61856 1.62075 1.62293 1.62506 1.62716 1.6292 1.63119 1.63312 1.635 1.6368 1.63854 1.6402 1.6418 1.64332 1.64477 1.64612 1.6474 1.64858 1.64966 1.6506 1.65138 1.65192 1.65214 1.65187 1.65087 1.64873 1.64481 1.63812 1.62716 1.60974 1.58288 1.54289 1.48608 1.40991 1.31475 1.20483 1.08783 0.972574 0.866586 0.77446 0.69781 0.636043 0.587386 0.549642 0.520678 0.498613 0.481903 0.46931 0.459873 0.452847 0.447666 0.443899 0.44122 0.439381 0.438197 0.437526 0.437263 0.437329 0.43766 0.438211 0.438944 0.43983 0.440844 0.441964 0.443172 0.44445 0.445781 0.447147 0.448532 0.449918 0.451287 0.452622 0.453904 0.455115 0.456239 0.457256 0.45815 0.458902 0.459496 0.459913 0.460132 0.461635 0.461404 0.460962 0.460331 0.459529 0.458576 0.457489 0.456288 0.454991 0.453619 0.45219 0.450724 0.449241 0.447761 0.44630