# vtk DataFile Version 3.0
Immiscible displacement
ASCII
DATASET RECTILINEAR_GRID
DIMENSIONS 400 100 1
X_COORDINATES 400 double
1 2 3 4 5 6 7 8 9 10 11 12 13 14 15 16 17 18 19 20 21 22 23 24 25 26 27 28 29 30 31 32 33 34 35 36 37 38 39 40 41 42 43 44 45 46 47 48 49 50 51 52 53 54 55 56 57 58 59 60 61 62 63 64 65 66 67 68 69 70 71 72 73 74 75 76 77 78 79 80 81 82 83 84 85 86 87 88 89 90 91 92 93 94 95 96 97 98 99 100 101 102 103 104 105 106 107 108 109 110 111 112 113 114 115 116 117 118 119 120 121 122 123 124 125 126 127 128 129 130 131 132 133 134 135 136 137 138 139 140 141 142 143 144 145 146 147 148 149 150 151 152 153 154 155 156 157 158 159 160 161 162 163 164 165 166 167 168 169 170 171 172 173 174 175 176 177 178 179 180 181 182 183 184 185 186 187 188 189 190 191 192 193 194 195 196 197 198 199 200 201 202 203 204 205 206 207 208 209 210 211 212 213 214 215 216 217 218 219 220 221 222 223 224 225 226 227 228 229 230 231 232 233 234 235 236 237 238 239 240 241 242 243 244 245 246 247 248 249 250 251 252 253 254 255 256 257 258 259 260 261 262 263 264 265 266 267 268 269 270 271 272 273 274 275 276 277 278 279 280 281 282 283 284 285 286 287 288 289 290 291 292 293 294 295 296 297 298 299 300 301 302 303 304 305 306 307 308 309 310 311 312 313 314 315 316 317 318 319 320 321 322 323 324 325 326 327 328 329 330 331 332 333 334 335 336 337 338 339 340 341 342 343 344 345 346 347 348 349 350 351 352 353 354 355 356 357 358 359 360 361 362 363 364 365 366 367 368 369 370 371 372 373 374 375 376 377 378 379 380 381 382 383 384 385 386 387 388 389 390 391 392 393 394 395 396 397 398 399 400 
Y_COORDINATES 100 double
1 2 3 4 5 6 7 8 9 10 11 12 13 14 15 16 17 18 19 20 21 22 23 24 25 26 27 28 29 30 31 32 33 34 35 36 37 38 39 40 41 42 43 44 45 46 47 48 49 50 51 52 53 54 55 56 57 58 59 60 61 62 63 64 65 66 67 68 69 70 71 72 73 74 75 76 77 78 79 80 81 82 83 84 85 86 87 88 89 90 91 92 93 94 95 96 97 98 99 100 
Z_COORDINATES 1 double
0
POINT_DATA 40000
SCALARS rho double 1
LOOKUP_TABLE default
0.475568 0.475568 0.475568 0.475568 0.475568 0.475568 0.475568 0.475568 0.475569 0.475569 0.47557 0.475571 0.475573 0.475574 0.475576 0.475578 0.47558 0.475582 0.475585 0.475587 0.47559 0.475594 0.475597 0.4756 0.475604 0.475608 0.475612 0.475616 0.475621 0.475625 0.47563 0.475635 0.47564 0.475645 0.47565 0.475656 0.475661 0.475667 0.475673 0.475679 0.475685 0.475691 0.475697 0.475704 0.47571 0.475717 0.475724 0.475731 0.475737 0.475744 0.475751 0.475759 0.475766 0.475773 0.47578 0.475788 0.475795 0.475803 0.47581 0.475818 0.475825 0.475833 0.475841 0.475849 0.475857 0.475864 0.475872 0.47588 0.475888 0.475896 0.475904 0.475912 0.47592 0.475928 0.475936 0.475945 0.475953 0.475961 0.475969 0.475977 0.475985 0.475993 0.476001 0.47601 0.476018 0.476026 0.476034 0.476042 0.47605 0.476059 0.476067 0.476075 0.476083 0.476091 0.476099 0.476108 0.476116 0.476124 0.476132 0.47614 0.476148 0.476157 0.476165 0.476173 0.476181 0.47619 0.476198 0.476206 0.476214 0.476223 0.476231 0.47624 0.476249 0.476258 0.476267 0.476276 0.476286 0.476296 0.476307 0.476319 0.476332 0.476346 0.476362 0.476381 0.476403 0.476429 0.476461 0.476501 0.476551 0.476614 0.476695 0.476799 0.476935 0.477113 0.477345 0.477652 0.478056 0.478591 0.4793 0.480239 0.481487 0.483145 0.48535 0.488286 0.492194 0.497401 0.504339 0.513582 0.525889 0.542261 0.563993 0.59274 0.630542 0.67978 0.742967 0.822245 0.918494 1.03012 1.152 1.27561 1.39085 1.48926 1.56656 1.62304 1.66204 1.68788 1.70456 1.71516 1.72185 1.72606 1.72871 1.73038 1.73144 1.73212 1.73255 1.73283 1.73302 1.73314 1.73322 1.73327 1.73331 1.73333 1.73335 1.73336 1.73337 1.73338 1.73338 1.73339 1.73339 1.73339 1.7334 1.7334 1.7334 1.7334 1.7334 1.7334 1.7334 1.7334 1.7334 1.7334 1.7334 1.7334 1.7334 1.7334 1.7334 1.7334 1.7334 1.7334 1.7334 1.7334 1.73339 1.73339 1.73339 1.73338 1.73337 1.73337 1.73335 1.73334 1.73331 1.73328 1.73322 1.73314 1.73303 1.73284 1.73257 1.73213 1.73146 1.73041 1.72874 1.72611 1.72193 1.71529 1.70475 1.68817 1.66248 1.62371 1.56749 1.49049 1.39236 1.27731 1.15376 1.03179 0.919982 0.823503 0.743993 0.680598 0.631185 0.593242 0.564386 0.542569 0.526134 0.513778 0.5045 0.497535 0.492308 0.488385 0.485438 0.483224 0.48156 0.480308 0.479365 0.478654 0.478117 0.477712 0.477404 0.477171 0.476993 0.476857 0.476752 0.476671 0.476607 0.476558 0.476518 0.476486 0.47646 0.476438 0.476419 0.476403 0.476389 0.476376 0.476364 0.476354 0.476343 0.476334 0.476324 0.476315 0.476306 0.476298 0.476289 0.476281 0.476272 0.476264 0.476256 0.476247 0.476239 0.476231 0.476223 0.476215 0.476207 0.476198 0.47619 0.476182 0.476174 0.476166 0.476158 0.476149 0.476141 0.476133 0.476125 0.476117 0.476109 0.4761 0.476092 0.476084 0.476076 0.476068 0.476059 0.476051 0.476043 0.476035 0.476026 0.476018 0.47601 0.476002 0.475994 0.475985 0.475977 0.475969 0.475961 0.475953 0.475945 0.475936 0.475928 0.47592 0.475912 0.475904 0.475896 0.475888 0.47588 0.475873 0.475865 0.475857 0.475849 0.475842 0.475834 0.475826 0.475819 0.475812 0.475804 0.475797 0.47579 0.475783 0.475776 0.475769 0.475762 0.475755 0.475748 0.475742 0.475735 0.475729 0.475723 0.475717 0.475711 0.475705 0.475699 0.475693 0.475688 0.475683 0.475677 0.475672 0.475668 0.475663 0.475658 0.475654 0.47565 0.475646 0.475642 0.475639 0.475635 0.475632 0.475629 0.475626 0.475624 0.475621 0.475619 0.475617 0.475615 0.475614 0.475613 0.475612 0.475611 0.47561 0.47561 0.475609 0.475609 0.475609 0.47561 0.47561 0.47561 0.47561 0.466015 0.466015 0.466015 0.466015 0.466014 0.466015 0.466015 0.466015 0.466016 0.466016 0.466017 0.466018 0.466019 0.466021 0.466023 0.466025 0.466027 0.466029 0.466031 0.466034 0.466037 0.46604 0.466043 0.466047 0.46605 0.466054 0.466058 0.466062 0.466066 0.466071 0.466075 0.46608 0.466085 0.46609 0.466095 0.466101 0.466106 0.466112 0.466117 0.466123 0.466129 0.466135 0.466141 0.466147 0.466154 0.46616 0.466167 0.466173 0.46618 0.466187 0.466193 0.4662 0.466207 0.466214 0.466222 0.466229 0.466236 0.466243 0.466251 0.466258 0.466265 0.466273 0.466281 0.466288 0.466296 0.466303 0.466311 0.466319 0.466326 0.466334 0.466342 0.46635 0.466358 0.466366 0.466373 0.466381 0.466389 0.466397 0.466405 0.466413 0.466421 0.466429 0.466437 0.466445 0.466452 0.46646 0.466468 0.466476 0.466484 0.466492 0.4665 0.466508 0.466516 0.466524 0.466532 0.46654 0.466548 0.466556 0.466564 0.466572 0.466579 0.466587 0.466595 0.466603 0.466611 0.466619 0.466627 0.466636 0.466644 0.466652 0.46666 0.466669 0.466677 0.466686 0.466695 0.466704 0.466713 0.466723 0.466734 0.466745 0.466758 0.466772 0.466787 0.466805 0.466826 0.466852 0.466883 0.466921 0.466969 0.46703 0.467108 0.467209 0.467339 0.46751 0.467734 0.46803 0.468419 0.468934 0.469615 0.470519 0.471718 0.473312 0.475431 0.478251 0.482004 0.487001 0.493655 0.502514 0.514303 0.529974 0.550759 0.578231 0.61433 0.661327 0.721638 0.797374 0.889526 0.99685 1.11485 1.2357 1.34983 1.4488 1.52784 1.58657 1.62775 1.65542 1.6735 1.6851 1.69249 1.69717 1.70014 1.70203 1.70323 1.704 1.7045 1.70482 1.70503 1.70517 1.70526 1.70533 1.70537 1.7054 1.70542 1.70543 1.70544 1.70545 1.70546 1.70546 1.70547 1.70547 1.70547 1.70547 1.70548 1.70548 1.70548 1.70548 1.70548 1.70548 1.70548 1.70548 1.70548 1.70548 1.70548 1.70548 1.70548 1.70548 1.70548 1.70548 1.70547 1.70547 1.70547 1.70547 1.70546 1.70546 1.70545 1.70544 1.70542 1.7054 1.70537 1.70533 1.70527 1.70518 1.70504 1.70483 1.70451 1.70402 1.70325 1.70205 1.70018 1.69723 1.69258 1.68524 1.6737 1.65574 1.62822 1.58726 1.52881 1.45006 1.35135 1.23738 1.11656 0.998461 0.890953 0.798577 0.722618 0.662108 0.614943 0.578711 0.551134 0.530269 0.514538 0.502703 0.493809 0.48713 0.482113 0.478346 0.475516 0.473389 0.471789 0.470585 0.469678 0.468995 0.468478 0.468088 0.467792 0.467567 0.467395 0.467264 0.467163 0.467085 0.467024 0.466976 0.466938 0.466907 0.466882 0.46686 0.466842 0.466827 0.466813 0.466801 0.466789 0.466779 0.466769 0.46676 0.46675 0.466742 0.466733 0.466725 0.466716 0.466708 0.4667 0.466692 0.466684 0.466676 0.466668 0.46666 0.466652 0.466644 0.466636 0.466628 0.46662 0.466612 0.466604 0.466596 0.466588 0.466581 0.466573 0.466565 0.466557 0.466549 0.466541 0.466533 0.466525 0.466517 0.466509 0.466501 0.466493 0.466485 0.466477 0.466469 0.466461 0.466453 0.466445 0.466437 0.466429 0.466421 0.466413 0.466405 0.466397 0.466389 0.466381 0.466373 0.466366 0.466358 0.46635 0.466342 0.466334 0.466327 0.466319 0.466311 0.466304 0.466296 0.466289 0.466281 0.466274 0.466267 0.466259 0.466252 0.466245 0.466238 0.466231 0.466224 0.466217 0.46621 0.466204 0.466197 0.46619 0.466184 0.466178 0.466172 0.466166 0.46616 0.466154 0.466148 0.466143 0.466137 0.466132 0.466127 0.466122 0.466117 0.466112 0.466107 0.466103 0.466099 0.466095 0.466091 0.466087 0.466084 0.46608 0.466077 0.466074 0.466072 0.466069 0.466067 0.466065 0.466063 0.466061 0.46606 0.466058 0.466057 0.466057 0.466056 0.466056 0.466055 0.466055 0.466055 0.466055 0.466056 0.466056 0.466056 0.458806 0.458806 0.458806 0.458806 0.458806 0.458806 0.458806 0.458806 0.458807 0.458808 0.458808 0.45881 0.458811 0.458812 0.458814 0.458816 0.458818 0.45882 0.458822 0.458825 0.458828 0.458831 0.458834 0.458837 0.458841 0.458845 0.458848 0.458852 0.458857 0.458861 0.458865 0.45887 0.458875 0.45888 0.458885 0.45889 0.458895 0.458901 0.458906 0.458912 0.458917 0.458923 0.458929 0.458935 0.458941 0.458948 0.458954 0.45896 0.458967 0.458974 0.45898 0.458987 0.458994 0.459001 0.459007 0.459015 0.459022 0.459029 0.459036 0.459043 0.45905 0.459058 0.459065 0.459072 0.45908 0.459087 0.459094 0.459102 0.45911 0.459117 0.459125 0.459132 0.45914 0.459147 0.459155 0.459163 0.45917 0.459178 0.459186 0.459194 0.459201 0.459209 0.459217 0.459224 0.459232 0.45924 0.459247 0.459255 0.459263 0.459271 0.459278 0.459286 0.459294 0.459301 0.459309 0.459317 0.459325 0.459332 0.45934 0.459348 0.459355 0.459363 0.459371 0.459379 0.459386 0.459394 0.459402 0.45941 0.459418 0.459426 0.459434 0.459442 0.45945 0.459459 0.459467 0.459476 0.459485 0.459495 0.459505 0.459516 0.459528 0.459542 0.459557 0.459574 0.459594 0.459619 0.459648 0.459685 0.459731 0.459789 0.459864 0.45996 0.460085 0.460248 0.460462 0.460743 0.461114 0.461604 0.462252 0.463112 0.464253 0.465768 0.46778 0.470456 0.474014 0.478747 0.485043 0.493417 0.504545 0.519317 0.538882 0.564705 0.598597 0.642686 0.699273 0.770449 0.857407 0.959437 1.07294 1.19115 1.30521 1.40664 1.48987 1.55341 1.5991 1.63051 1.65142 1.66507 1.67388 1.67953 1.68315 1.68547 1.68696 1.68793 1.68856 1.68897 1.68924 1.68941 1.68953 1.68961 1.68967 1.68971 1.68973 1.68975 1.68977 1.68978 1.68979 1.68979 1.6898 1.6898 1.6898 1.68981 1.68981 1.68981 1.68981 1.68981 1.68981 1.68981 1.68981 1.68981 1.68981 1.68981 1.68981 1.68981 1.68981 1.68981 1.68981 1.68981 1.68981 1.6898 1.6898 1.6898 1.68979 1.68978 1.68977 1.68976 1.68974 1.68971 1.68968 1.68962 1.68954 1.68942 1.68925 1.68898 1.68857 1.68795 1.68699 1.6855 1.6832 1.6796 1.67399 1.66523 1.65166 1.63087 1.59964 1.55417 1.4909 1.40794 1.30674 1.19281 1.0746 0.960977 0.858757 0.771582 0.700193 0.643419 0.599173 0.565157 0.539236 0.519596 0.504768 0.493596 0.48519 0.47887 0.474119 0.470547 0.467861 0.465842 0.464321 0.463177 0.462314 0.461663 0.461171 0.460799 0.460517 0.460302 0.460139 0.460014 0.459917 0.459843 0.459784 0.459738 0.459702 0.459672 0.459648 0.459628 0.45961 0.459595 0.459582 0.45957 0.459559 0.459549 0.459539 0.45953 0.459521 0.459513 0.459505 0.459496 0.459488 0.45948 0.459472 0.459465 0.459457 0.459449 0.459441 0.459434 0.459426 0.459418 0.45941 0.459403 0.459395 0.459387 0.45938 0.459372 0.459364 0.459357 0.459349 0.459341 0.459333 0.459326 0.459318 0.45931 0.459302 0.459295 0.459287 0.459279 0.459271 0.459264 0.459256 0.459248 0.45924 0.459232 0.459225 0.459217 0.459209 0.459201 0.459194 0.459186 0.459178 0.459171 0.459163 0.459155 0.459147 0.45914 0.459132 0.459125 0.459117 0.45911 0.459102 0.459095 0.459087 0.45908 0.459073 0.459066 0.459058 0.459051 0.459044 0.459037 0.45903 0.459023 0.459016 0.45901 0.459003 0.458997 0.45899 0.458984 0.458977 0.458971 0.458965 0.458959 0.458953 0.458947 0.458942 0.458936 0.458931 0.458925 0.45892 0.458915 0.45891 0.458906 0.458901 0.458897 0.458892 0.458888 0.458884 0.458881 0.458877 0.458874 0.45887 0.458867 0.458864 0.458862 0.458859 0.458857 0.458855 0.458853 0.458851 0.45885 0.458849 0.458848 0.458847 0.458846 0.458846 0.458845 0.458845 0.458845 0.458845 0.458846 0.458846 0.458846 0.453371 0.453371 0.453371 0.453371 0.453371 0.453371 0.453371 0.453372 0.453372 0.453373 0.453374 0.453375 0.453376 0.453378 0.45338 0.453381 0.453383 0.453386 0.453388 0.453391 0.453393 0.453396 0.453399 0.453403 0.453406 0.45341 0.453413 0.453417 0.453421 0.453426 0.45343 0.453434 0.453439 0.453444 0.453449 0.453454 0.453459 0.453464 0.453469 0.453475 0.453481 0.453486 0.453492 0.453498 0.453504 0.45351 0.453516 0.453522 0.453529 0.453535 0.453542 0.453548 0.453555 0.453561 0.453568 0.453575 0.453582 0.453589 0.453596 0.453603 0.45361 0.453617 0.453624 0.453631 0.453638 0.453646 0.453653 0.45366 0.453668 0.453675 0.453682 0.45369 0.453697 0.453704 0.453712 0.453719 0.453727 0.453734 0.453742 0.453749 0.453757 0.453764 0.453772 0.453779 0.453787 0.453794 0.453802 0.453809 0.453817 0.453824 0.453832 0.453839 0.453847 0.453854 0.453862 0.453869 0.453877 0.453884 0.453892 0.453899 0.453907 0.453914 0.453922 0.45393 0.453937 0.453945 0.453952 0.45396 0.453968 0.453975 0.453983 0.453991 0.453999 0.454007 0.454016 0.454024 0.454033 0.454042 0.454052 0.454063 0.454074 0.454087 0.454102 0.454118 0.454138 0.454161 0.454189 0.454224 0.454268 0.454323 0.454394 0.454485 0.454603 0.454758 0.45496 0.455226 0.455576 0.456039 0.456651 0.457461 0.458536 0.459961 0.461853 0.464365 0.467703 0.472136 0.478025 0.485844 0.496218 0.509962 0.528131 0.552068 0.583435 0.624202 0.676535 0.742505 0.823513 0.919444 1.02772 1.14279 1.25674 1.3612 1.44978 1.51966 1.57147 1.60805 1.63299 1.64959 1.66047 1.66755 1.67213 1.67511 1.67704 1.6783 1.67912 1.67967 1.68003 1.68027 1.68043 1.68054 1.68061 1.68066 1.6807 1.68073 1.68074 1.68076 1.68077 1.68078 1.68078 1.68079 1.68079 1.6808 1.6808 1.6808 1.6808 1.6808 1.6808 1.68081 1.68081 1.68081 1.68081 1.68081 1.68081 1.6808 1.6808 1.6808 1.6808 1.6808 1.6808 1.68079 1.68079 1.68078 1.68077 1.68076 1.68075 1.68073 1.68071 1.68067 1.68062 1.68054 1.68043 1.68027 1.68004 1.67968 1.67914 1.67832 1.67707 1.67515 1.67219 1.66763 1.6606 1.64978 1.63328 1.60848 1.57208 1.52051 1.4509 1.36256 1.25829 1.14442 1.02931 0.920901 0.824777 0.743558 0.677389 0.624881 0.58397 0.552488 0.528461 0.510223 0.496427 0.486013 0.478164 0.472253 0.467803 0.464453 0.461931 0.460032 0.458601 0.457523 0.45671 0.456096 0.455632 0.45528 0.455013 0.454811 0.454656 0.454537 0.454446 0.454375 0.45432 0.454276 0.454241 0.454213 0.45419 0.45417 0.454154 0.45414 0.454127 0.454115 0.454105 0.454095 0.454086 0.454077 0.454068 0.45406 0.454052 0.454044 0.454036 0.454028 0.454021 0.454013 0.454005 0.453998 0.45399 0.453983 0.453975 0.453968 0.45396 0.453953 0.453945 0.453938 0.45393 0.453923 0.453915 0.453908 0.4539 0.453893 0.453885 0.453878 0.45387 0.453863 0.453855 0.453848 0.45384 0.453833 0.453825 0.453817 0.45381 0.453802 0.453795 0.453787 0.45378 0.453772 0.453764 0.453757 0.453749 0.453742 0.453734 0.453727 0.453719 0.453712 0.453705 0.453697 0.45369 0.453682 0.453675 0.453668 0.45366 0.453653 0.453646 0.453639 0.453632 0.453625 0.453618 0.453611 0.453604 0.453597 0.45359 0.453584 0.453577 0.45357 0.453564 0.453558 0.453551 0.453545 0.453539 0.453533 0.453527 0.453521 0.453515 0.45351 0.453504 0.453499 0.453494 0.453488 0.453483 0.453479 0.453474 0.453469 0.453465 0.45346 0.453456 0.453452 0.453448 0.453445 0.453441 0.453438 0.453435 0.453432 0.453429 0.453426 0.453424 0.453422 0.45342 0.453418 0.453416 0.453415 0.453413 0.453412 0.453412 0.453411 0.45341 0.45341 0.45341 0.45341 0.45341 0.45341 0.45341 0.45341 0.449276 0.449276 0.449277 0.449277 0.449277 0.449277 0.449277 0.449278 0.449278 0.449279 0.44928 0.449281 0.449282 0.449284 0.449286 0.449287 0.449289 0.449292 0.449294 0.449296 0.449299 0.449302 0.449305 0.449308 0.449312 0.449315 0.449319 0.449323 0.449326 0.449331 0.449335 0.449339 0.449344 0.449348 0.449353 0.449358 0.449363 0.449368 0.449373 0.449379 0.449384 0.44939 0.449395 0.449401 0.449407 0.449413 0.449419 0.449425 0.449431 0.449438 0.449444 0.44945 0.449457 0.449463 0.44947 0.449476 0.449483 0.44949 0.449497 0.449504 0.44951 0.449517 0.449524 0.449531 0.449538 0.449545 0.449552 0.44956 0.449567 0.449574 0.449581 0.449588 0.449595 0.449603 0.44961 0.449617 0.449624 0.449632 0.449639 0.449646 0.449654 0.449661 0.449668 0.449676 0.449683 0.44969 0.449698 0.449705 0.449712 0.44972 0.449727 0.449734 0.449742 0.449749 0.449756 0.449764 0.449771 0.449778 0.449785 0.449793 0.4498 0.449807 0.449815 0.449822 0.449829 0.449837 0.449844 0.449852 0.449859 0.449867 0.449874 0.449882 0.44989 0.449898 0.449906 0.449914 0.449923 0.449932 0.449941 0.449952 0.449963 0.449975 0.449989 0.450005 0.450023 0.450045 0.450072 0.450105 0.450146 0.450199 0.450265 0.450351 0.450463 0.450608 0.450798 0.451047 0.451376 0.45181 0.452382 0.45314 0.454144 0.455473 0.457236 0.459574 0.462674 0.466786 0.472238 0.479463 0.489027 0.501671 0.518348 0.540273 0.568951 0.606183 0.653989 0.714392 0.788972 0.878166 0.9804 1.09143 1.2045 1.31163 1.4058 1.48282 1.54191 1.58492 1.61501 1.63546 1.64912 1.65814 1.66406 1.66794 1.67048 1.67215 1.67326 1.67399 1.67448 1.67481 1.67503 1.67518 1.67529 1.67536 1.67541 1.67545 1.67547 1.67549 1.67551 1.67552 1.67553 1.67553 1.67554 1.67554 1.67554 1.67555 1.67555 1.67555 1.67555 1.67555 1.67555 1.67555 1.67555 1.67555 1.67555 1.67555 1.67555 1.67555 1.67555 1.67554 1.67554 1.67554 1.67553 1.67552 1.67551 1.6755 1.67548 1.67545 1.67542 1.67537 1.67529 1.67519 1.67504 1.67482 1.67449 1.67401 1.67328 1.67218 1.67052 1.66799 1.66413 1.65825 1.64928 1.6357 1.61536 1.58543 1.54262 1.48377 1.407 1.31305 1.20607 1.09303 0.981921 0.879531 0.790141 0.715359 0.654771 0.606805 0.569441 0.540659 0.518653 0.501913 0.489221 0.479621 0.472369 0.466896 0.462769 0.459657 0.457311 0.455541 0.454207 0.4532 0.452439 0.451865 0.45143 0.4511 0.45085 0.450659 0.450514 0.450402 0.450316 0.450249 0.450197 0.450156 0.450123 0.450096 0.450074 0.450055 0.45004 0.450026 0.450014 0.450003 0.449992 0.449983 0.449974 0.449966 0.449957 0.449949 0.449941 0.449934 0.449926 0.449919 0.449911 0.449904 0.449896 0.449889 0.449881 0.449874 0.449867 0.44986 0.449852 0.449845 0.449838 0.44983 0.449823 0.449816 0.449808 0.449801 0.449794 0.449787 0.449779 0.449772 0.449764 0.449757 0.44975 0.449742 0.449735 0.449728 0.44972 0.449713 0.449706 0.449698 0.449691 0.449683 0.449676 0.449669 0.449661 0.449654 0.449647 0.449639 0.449632 0.449625 0.449617 0.44961 0.449603 0.449596 0.449588 0.449581 0.449574 0.449567 0.44956 0.449553 0.449546 0.449539 0.449532 0.449525 0.449518 0.449511 0.449505 0.449498 0.449491 0.449485 0.449478 0.449472 0.449466 0.44946 0.449453 0.449447 0.449441 0.449435 0.44943 0.449424 0.449418 0.449413 0.449407 0.449402 0.449397 0.449392 0.449387 0.449382 0.449378 0.449373 0.449369 0.449365 0.449361 0.449357 0.449353 0.449349 0.449346 0.449343 0.44934 0.449337 0.449334 0.449331 0.449329 0.449327 0.449325 0.449323 0.449321 0.44932 0.449319 0.449318 0.449317 0.449316 0.449315 0.449315 0.449315 0.449314 0.449314 0.449314 0.449314 0.449314 0.446193 0.446193 0.446193 0.446193 0.446194 0.446194 0.446194 0.446195 0.446195 0.446196 0.446197 0.446198 0.4462 0.446201 0.446203 0.446205 0.446207 0.446209 0.446211 0.446214 0.446216 0.446219 0.446222 0.446225 0.446228 0.446232 0.446235 0.446239 0.446243 0.446247 0.446251 0.446256 0.44626 0.446265 0.446269 0.446274 0.446279 0.446284 0.446289 0.446294 0.4463 0.446305 0.446311 0.446316 0.446322 0.446328 0.446334 0.44634 0.446346 0.446352 0.446358 0.446364 0.44637 0.446377 0.446383 0.44639 0.446396 0.446403 0.446409 0.446416 0.446423 0.44643 0.446436 0.446443 0.44645 0.446457 0.446464 0.446471 0.446478 0.446485 0.446492 0.446499 0.446506 0.446513 0.44652 0.446527 0.446534 0.446542 0.446549 0.446556 0.446563 0.44657 0.446577 0.446584 0.446592 0.446599 0.446606 0.446613 0.44662 0.446627 0.446635 0.446642 0.446649 0.446656 0.446663 0.44667 0.446677 0.446685 0.446692 0.446699 0.446706 0.446713 0.44672 0.446728 0.446735 0.446742 0.446749 0.446756 0.446764 0.446771 0.446778 0.446786 0.446793 0.446801 0.446809 0.446817 0.446825 0.446834 0.446843 0.446853 0.446864 0.446876 0.446889 0.446904 0.446922 0.446943 0.446968 0.446999 0.447038 0.447087 0.44715 0.44723 0.447335 0.44747 0.447648 0.44788 0.448187 0.44859 0.449122 0.449826 0.450756 0.451987 0.453616 0.455774 0.458629 0.462409 0.467411 0.474023 0.482756 0.494273 0.509426 0.529299 0.555243 0.588886 0.632086 0.68679 0.754694 0.836693 0.932121 1.03803 1.14895 1.25766 1.35688 1.44122 1.50836 1.55889 1.59525 1.62058 1.63782 1.64939 1.65709 1.66219 1.66557 1.66781 1.66931 1.6703 1.67097 1.67143 1.67174 1.67195 1.67209 1.6722 1.67227 1.67232 1.67236 1.67238 1.6724 1.67242 1.67243 1.67244 1.67245 1.67245 1.67246 1.67246 1.67246 1.67246 1.67247 1.67247 1.67247 1.67247 1.67247 1.67247 1.67247 1.67246 1.67246 1.67246 1.67246 1.67245 1.67245 1.67244 1.67243 1.67242 1.67241 1.67239 1.67236 1.67232 1.67227 1.6722 1.6721 1.67196 1.67175 1.67144 1.67099 1.67032 1.66933 1.66785 1.66562 1.66225 1.65718 1.64953 1.63802 1.62088 1.59568 1.55949 1.50918 1.44228 1.35818 1.25914 1.15051 1.03957 0.933555 0.837957 0.755764 0.68767 0.632795 0.589449 0.555689 0.529651 0.509704 0.494495 0.482936 0.47417 0.467533 0.462513 0.458719 0.455852 0.453687 0.452052 0.450817 0.449883 0.449178 0.448643 0.448239 0.447932 0.447698 0.44752 0.447384 0.44728 0.447199 0.447137 0.447088 0.447049 0.447017 0.446992 0.446971 0.446954 0.446939 0.446926 0.446914 0.446903 0.446893 0.446884 0.446876 0.446867 0.446859 0.446852 0.446844 0.446836 0.446829 0.446822 0.446814 0.446807 0.4468 0.446793 0.446786 0.446778 0.446771 0.446764 0.446757 0.44675 0.446743 0.446736 0.446729 0.446721 0.446714 0.446707 0.4467 0.446693 0.446686 0.446678 0.446671 0.446664 0.446657 0.44665 0.446643 0.446635 0.446628 0.446621 0.446614 0.446607 0.446599 0.446592 0.446585 0.446578 0.44657 0.446563 0.446556 0.446549 0.446542 0.446535 0.446527 0.44652 0.446513 0.446506 0.446499 0.446492 0.446485 0.446478 0.446471 0.446464 0.446458 0.446451 0.446444 0.446437 0.446431 0.446424 0.446417 0.446411 0.446404 0.446398 0.446392 0.446386 0.446379 0.446373 0.446367 0.446361 0.446355 0.44635 0.446344 0.446338 0.446333 0.446328 0.446322 0.446317 0.446312 0.446307 0.446302 0.446298 0.446293 0.446289 0.446285 0.446281 0.446277 0.446273 0.446269 0.446266 0.446262 0.446259 0.446256 0.446253 0.44625 0.446248 0.446245 0.446243 0.446241 0.446239 0.446238 0.446236 0.446235 0.446234 0.446233 0.446232 0.446232 0.446231 0.446231 0.446231 0.44623 0.44623 0.44623 0.44623 0.443872 0.443872 0.443872 0.443872 0.443873 0.443873 0.443873 0.443874 0.443875 0.443876 0.443877 0.443878 0.443879 0.443881 0.443882 0.443884 0.443886 0.443888 0.44389 0.443893 0.443896 0.443898 0.443901 0.443904 0.443908 0.443911 0.443914 0.443918 0.443922 0.443926 0.44393 0.443934 0.443939 0.443943 0.443948 0.443952 0.443957 0.443962 0.443967 0.443972 0.443977 0.443983 0.443988 0.443994 0.443999 0.444005 0.444011 0.444017 0.444022 0.444029 0.444035 0.444041 0.444047 0.444053 0.444059 0.444066 0.444072 0.444079 0.444085 0.444092 0.444098 0.444105 0.444112 0.444118 0.444125 0.444132 0.444139 0.444145 0.444152 0.444159 0.444166 0.444173 0.44418 0.444187 0.444194 0.444201 0.444208 0.444215 0.444222 0.444229 0.444236 0.444243 0.44425 0.444257 0.444264 0.444271 0.444278 0.444285 0.444292 0.444299 0.444306 0.444313 0.44432 0.444327 0.444334 0.444341 0.444348 0.444355 0.444362 0.444369 0.444376 0.444383 0.44439 0.444397 0.444404 0.444411 0.444418 0.444425 0.444432 0.444439 0.444446 0.444454 0.444461 0.444469 0.444476 0.444484 0.444492 0.444501 0.44451 0.444519 0.444529 0.444541 0.444553 0.444568 0.444584 0.444604 0.444628 0.444658 0.444694 0.44474 0.444798 0.444874 0.444971 0.445097 0.445261 0.445477 0.445761 0.446134 0.446625 0.447274 0.44813 0.449262 0.450757 0.452732 0.455342 0.458789 0.463339 0.46934 0.477245 0.487642 0.501286 0.519137 0.542392 0.572505 0.61117 0.660221 0.721402 0.795944 0.883934 0.983609 1.09088 1.19958 1.30262 1.39379 1.46927 1.52818 1.57195 1.60325 1.62503 1.63991 1.64995 1.65669 1.66121 1.66423 1.66626 1.66762 1.66855 1.66918 1.66961 1.66991 1.67011 1.67026 1.67036 1.67043 1.67049 1.67053 1.67055 1.67058 1.67059 1.6706 1.67061 1.67062 1.67063 1.67063 1.67063 1.67064 1.67064 1.67064 1.67064 1.67064 1.67064 1.67064 1.67064 1.67064 1.67064 1.67063 1.67063 1.67062 1.67062 1.67061 1.6706 1.67058 1.67056 1.67053 1.67049 1.67044 1.67037 1.67027 1.67012 1.66992 1.66962 1.66919 1.66857 1.66765 1.66629 1.66427 1.66127 1.65678 1.65007 1.64008 1.62529 1.60362 1.57247 1.5289 1.47022 1.39496 1.304 1.20109 1.09242 0.98508 0.885268 0.797101 0.722371 0.661013 0.611806 0.573012 0.542793 0.519456 0.50154 0.487846 0.47741 0.469476 0.463453 0.458886 0.455426 0.452807 0.450824 0.449324 0.448189 0.44733 0.446679 0.446186 0.445811 0.445527 0.445311 0.445146 0.445019 0.444922 0.444847 0.444788 0.444742 0.444706 0.444676 0.444653 0.444633 0.444616 0.444602 0.444589 0.444578 0.444568 0.444558 0.44455 0.444541 0.444533 0.444525 0.444518 0.44451 0.444503 0.444496 0.444489 0.444482 0.444475 0.444468 0.444461 0.444454 0.444447 0.44444 0.444433 0.444426 0.444419 0.444412 0.444405 0.444398 0.444391 0.444384 0.444377 0.44437 0.444363 0.444356 0.444349 0.444342 0.444335 0.444328 0.444321 0.444314 0.444306 0.444299 0.444292 0.444285 0.444278 0.444271 0.444264 0.444257 0.44425 0.444243 0.444236 0.444229 0.444222 0.444215 0.444208 0.444201 0.444194 0.444187 0.44418 0.444173 0.444166 0.444159 0.444153 0.444146 0.444139 0.444132 0.444126 0.444119 0.444112 0.444106 0.444099 0.444093 0.444087 0.44408 0.444074 0.444068 0.444062 0.444056 0.44405 0.444044 0.444038 0.444032 0.444027 0.444021 0.444016 0.44401 0.444005 0.444 0.443995 0.44399 0.443985 0.44398 0.443976 0.443971 0.443967 0.443963 0.443959 0.443955 0.443951 0.443948 0.443944 0.443941 0.443938 0.443935 0.443932 0.443929 0.443927 0.443924 0.443922 0.44392 0.443918 0.443917 0.443915 0.443914 0.443913 0.443912 0.443911 0.44391 0.44391 0.443909 0.443909 0.443909 0.443909 0.443909 0.443909 0.442125 0.442125 0.442125 0.442126 0.442126 0.442126 0.442127 0.442128 0.442128 0.442129 0.44213 0.442131 0.442133 0.442134 0.442136 0.442138 0.44214 0.442142 0.442144 0.442147 0.442149 0.442152 0.442155 0.442158 0.442161 0.442164 0.442168 0.442172 0.442175 0.442179 0.442183 0.442187 0.442192 0.442196 0.442201 0.442205 0.44221 0.442215 0.44222 0.442225 0.44223 0.442235 0.44224 0.442246 0.442251 0.442257 0.442263 0.442268 0.442274 0.44228 0.442286 0.442292 0.442298 0.442304 0.44231 0.442317 0.442323 0.442329 0.442336 0.442342 0.442348 0.442355 0.442362 0.442368 0.442375 0.442381 0.442388 0.442395 0.442401 0.442408 0.442415 0.442422 0.442429 0.442435 0.442442 0.442449 0.442456 0.442463 0.44247 0.442477 0.442483 0.44249 0.442497 0.442504 0.442511 0.442518 0.442525 0.442532 0.442538 0.442545 0.442552 0.442559 0.442566 0.442573 0.44258 0.442587 0.442593 0.4426 0.442607 0.442614 0.442621 0.442628 0.442635 0.442641 0.442648 0.442655 0.442662 0.442669 0.442676 0.442683 0.44269 0.442697 0.442704 0.442712 0.442719 0.442727 0.442735 0.442743 0.442751 0.442761 0.442771 0.442781 0.442793 0.442807 0.442823 0.442842 0.442864 0.442892 0.442926 0.442969 0.443023 0.443093 0.443183 0.4433 0.443452 0.443651 0.443912 0.444255 0.444706 0.4453 0.446084 0.447117 0.448479 0.450275 0.452643 0.455763 0.459871 0.465276 0.472376 0.481688 0.493875 0.509778 0.530451 0.55718 0.591485 0.635068 0.689649 0.75667 0.836794 0.929269 1.03135 1.13814 1.24321 1.34002 1.42356 1.49135 1.54351 1.58195 1.60938 1.62849 1.64161 1.65054 1.65658 1.66067 1.66344 1.66532 1.6666 1.66748 1.66808 1.6685 1.6688 1.669 1.66915 1.66926 1.66933 1.66939 1.66943 1.66946 1.66948 1.6695 1.66952 1.66953 1.66954 1.66954 1.66955 1.66955 1.66955 1.66956 1.66956 1.66956 1.66956 1.66956 1.66955 1.66955 1.66955 1.66954 1.66954 1.66953 1.66952 1.66951 1.66949 1.66947 1.66944 1.66939 1.66934 1.66926 1.66916 1.66901 1.66881 1.66852 1.6681 1.6675 1.66662 1.66535 1.66348 1.66072 1.65666 1.65065 1.64177 1.62872 1.6097 1.58241 1.54414 1.49219 1.42462 1.3413 1.24464 1.13964 1.03283 0.93065 0.83802 0.757718 0.690519 0.635775 0.592053 0.557632 0.530811 0.510065 0.494104 0.481873 0.472527 0.465401 0.459977 0.455854 0.452722 0.450346 0.448543 0.447177 0.44614 0.445354 0.444758 0.444305 0.443961 0.4437 0.4435 0.443347 0.44323 0.44314 0.44307 0.443016 0.442973 0.442939 0.442912 0.442889 0.44287 0.442855 0.442841 0.442829 0.442818 0.442809 0.442799 0.442791 0.442783 0.442775 0.442767 0.44276 0.442753 0.442746 0.442739 0.442732 0.442725 0.442718 0.442711 0.442704 0.442697 0.44269 0.442684 0.442677 0.44267 0.442663 0.442656 0.442649 0.442643 0.442636 0.442629 0.442622 0.442615 0.442608 0.442601 0.442594 0.442588 0.442581 0.442574 0.442567 0.44256 0.442553 0.442546 0.442539 0.442532 0.442525 0.442518 0.442511 0.442504 0.442498 0.442491 0.442484 0.442477 0.44247 0.442463 0.442456 0.442449 0.442443 0.442436 0.442429 0.442422 0.442415 0.442409 0.442402 0.442395 0.442389 0.442382 0.442376 0.442369 0.442363 0.442356 0.44235 0.442343 0.442337 0.442331 0.442325 0.442319 0.442313 0.442307 0.442301 0.442295 0.442289 0.442284 0.442278 0.442273 0.442267 0.442262 0.442257 0.442252 0.442247 0.442242 0.442237 0.442233 0.442228 0.442224 0.44222 0.442216 0.442212 0.442208 0.442204 0.442201 0.442197 0.442194 0.442191 0.442188 0.442185 0.442182 0.44218 0.442178 0.442175 0.442173 0.442172 0.44217 0.442168 0.442167 0.442166 0.442165 0.442164 0.442163 0.442163 0.442162 0.442162 0.442162 0.442161 0.442161 0.442161 0.440811 0.440811 0.440811 0.440811 0.440812 0.440812 0.440813 0.440813 0.440814 0.440815 0.440816 0.440818 0.440819 0.44082 0.440822 0.440824 0.440826 0.440828 0.44083 0.440833 0.440835 0.440838 0.440841 0.440844 0.4