# vtk DataFile Version 3.0
Immiscible displacement
ASCII
DATASET RECTILINEAR_GRID
DIMENSIONS 200 200 1
X_COORDINATES 200 double
1 2 3 4 5 6 7 8 9 10 11 12 13 14 15 16 17 18 19 20 21 22 23 24 25 26 27 28 29 30 31 32 33 34 35 36 37 38 39 40 41 42 43 44 45 46 47 48 49 50 51 52 53 54 55 56 57 58 59 60 61 62 63 64 65 66 67 68 69 70 71 72 73 74 75 76 77 78 79 80 81 82 83 84 85 86 87 88 89 90 91 92 93 94 95 96 97 98 99 100 101 102 103 104 105 106 107 108 109 110 111 112 113 114 115 116 117 118 119 120 121 122 123 124 125 126 127 128 129 130 131 132 133 134 135 136 137 138 139 140 141 142 143 144 145 146 147 148 149 150 151 152 153 154 155 156 157 158 159 160 161 162 163 164 165 166 167 168 169 170 171 172 173 174 175 176 177 178 179 180 181 182 183 184 185 186 187 188 189 190 191 192 193 194 195 196 197 198 199 200 
Y_COORDINATES 200 double
1 2 3 4 5 6 7 8 9 10 11 12 13 14 15 16 17 18 19 20 21 22 23 24 25 26 27 28 29 30 31 32 33 34 35 36 37 38 39 40 41 42 43 44 45 46 47 48 49 50 51 52 53 54 55 56 57 58 59 60 61 62 63 64 65 66 67 68 69 70 71 72 73 74 75 76 77 78 79 80 81 82 83 84 85 86 87 88 89 90 91 92 93 94 95 96 97 98 99 100 101 102 103 104 105 106 107 108 109 110 111 112 113 114 115 116 117 118 119 120 121 122 123 124 125 126 127 128 129 130 131 132 133 134 135 136 137 138 139 140 141 142 143 144 145 146 147 148 149 150 151 152 153 154 155 156 157 158 159 160 161 162 163 164 165 166 167 168 169 170 171 172 173 174 175 176 177 178 179 180 181 182 183 184 185 186 187 188 189 190 191 192 193 194 195 196 197 198 199 200 
Z_COORDINATES 1 double
0
POINT_DATA 40000
SCALARS rho double 1
LOOKUP_TABLE default
0.432616 0.432517 0.432375 0.43222 0.432065 0.431918 0.431785 0.431667 0.431567 0.431487 0.431429 0.431396 0.43139 0.431415 0.431476 0.43158 0.431735 0.431953 0.432248 0.432643 0.433161 0.433842 0.434732 0.435897 0.437424 0.439433 0.44208 0.445583 0.450227 0.456402 0.464624 0.475585 0.490198 0.509664 0.535526 0.569723 0.614565 0.672599 0.746184 0.836724 0.943474 1.06238 1.18572 1.30347 1.40635 1.48873 1.54972 1.59206 1.62004 1.6379 1.64903 1.65585 1.65999 1.6625 1.66401 1.66493 1.66548 1.66584 1.66607 1.66624 1.66637 1.66649 1.6666 1.66672 1.66684 1.66697 1.6671 1.66724 1.66739 1.66755 1.66771 1.66788 1.66806 1.66824 1.66842 1.66861 1.6688 1.66899 1.66918 1.66937 1.66955 1.66974 1.66991 1.67009 1.67026 1.67042 1.67057 1.67072 1.67085 1.67098 1.6711 1.67121 1.6713 1.67138 1.67145 1.67151 1.67154 1.67158 1.67159 1.6716 1.67158 1.67156 1.67152 1.67147 1.6714 1.67133 1.67124 1.67114 1.67102 1.6709 1.67076 1.67062 1.67047 1.67031 1.67014 1.66997 1.66979 1.66961 1.66942 1.66923 1.66903 1.66884 1.66865 1.66846 1.66827 1.66808 1.6679 1.66773 1.66755 1.66739 1.66723 1.66709 1.66694 1.66682 1.66669 1.66658 1.66646 1.66636 1.66624 1.66611 1.66594 1.66571 1.66536 1.6648 1.66387 1.66234 1.6598 1.6556 1.64867 1.63738 1.61927 1.59092 1.54807 1.48647 1.40346 1.30007 1.18206 1.05878 0.940201 0.833953 0.743971 0.670917 0.613346 0.568884 0.534991 0.509366 0.490084 0.475614 0.464764 0.45663 0.450523 0.445933 0.442473 0.439861 0.43788 0.436376 0.435229 0.434354 0.433685 0.433175 0.432787 0.432496 0.43228 0.432126 0.432021 0.431957 0.431927 0.431927 0.431952 0.432001 0.432071 0.432159 0.432265 0.432387 0.432522 0.43267 0.432824 0.432977 0.433116 0.433214 0.43251 0.432432 0.43231 0.43217 0.432025 0.431887 0.431759 0.431646 0.43155 0.431474 0.431418 0.431388 0.431383 0.431411 0.431473 0.431579 0.431735 0.431954 0.43225 0.432646 0.433164 0.433845 0.434734 0.435897 0.437421 0.439425 0.442065 0.445559 0.450188 0.456344 0.464538 0.475463 0.490026 0.509425 0.535195 0.569273 0.613958 0.671798 0.745152 0.835443 0.941961 1.06071 1.184 1.30186 1.40496 1.48763 1.54891 1.5915 1.61967 1.63766 1.64887 1.65576 1.65994 1.66247 1.66399 1.66492 1.66548 1.66584 1.66607 1.66624 1.66637 1.66649 1.66659 1.66671 1.66682 1.66695 1.66708 1.66722 1.66736 1.66752 1.66768 1.66785 1.66802 1.6682 1.66837 1.66856 1.66874 1.66894 1.66912 1.66931 1.66948 1.66967 1.66984 1.67002 1.67018 1.67034 1.67049 1.67064 1.67077 1.6709 1.67101 1.67112 1.6712 1.67129 1.67135 1.67141 1.67145 1.67148 1.67149 1.6715 1.67148 1.67147 1.67142 1.67138 1.67131 1.67124 1.67114 1.67105 1.67093 1.67082 1.67068 1.67054 1.67039 1.67023 1.67006 1.6699 1.66971 1.66954 1.66935 1.66917 1.66897 1.66879 1.66859 1.66841 1.66822 1.66804 1.66786 1.66769 1.66752 1.66736 1.66721 1.66707 1.66692 1.6668 1.66667 1.66657 1.66645 1.66635 1.66624 1.66611 1.66594 1.66572 1.66535 1.66479 1.66385 1.66231 1.65974 1.6555 1.64851 1.63714 1.61889 1.59035 1.54726 1.48537 1.40207 1.29846 1.18035 1.05711 0.938699 0.832684 0.742948 0.670124 0.612744 0.568438 0.534663 0.509129 0.489913 0.475493 0.464678 0.456571 0.450483 0.445907 0.442457 0.439851 0.437875 0.436375 0.435229 0.434356 0.433687 0.433177 0.432788 0.432496 0.432279 0.432124 0.432017 0.431952 0.43192 0.431919 0.431942 0.431989 0.432056 0.432142 0.432244 0.432361 0.432491 0.432631 0.432774 0.432914 0.433034 0.433111 0.432356 0.432297 0.432198 0.432079 0.431951 0.431827 0.431709 0.431606 0.431517 0.431446 0.431396 0.43137 0.431369 0.4314 0.431465 0.431574 0.431732 0.431954 0.432252 0.432648 0.433167 0.433847 0.434734 0.435893 0.437411 0.439405 0.442031 0.445504 0.450105 0.456222 0.464361 0.47521 0.489669 0.508929 0.534511 0.568339 0.612703 0.67014 0.74302 0.8328 0.938843 1.05726 1.18047 1.29855 1.40212 1.48539 1.54726 1.59036 1.61891 1.63717 1.64856 1.65557 1.65982 1.6624 1.66395 1.6649 1.66547 1.66583 1.66606 1.66623 1.66636 1.66647 1.66658 1.66669 1.66679 1.66692 1.66704 1.66718 1.66731 1.66747 1.66762 1.66778 1.66795 1.66812 1.66829 1.66848 1.66865 1.66884 1.66901 1.6692 1.66937 1.66955 1.66972 1.66989 1.67005 1.67021 1.67035 1.6705 1.67062 1.67075 1.67086 1.67096 1.67105 1.67113 1.67119 1.67125 1.67129 1.67132 1.67133 1.67134 1.67132 1.6713 1.67126 1.67122 1.67115 1.67108 1.67099 1.6709 1.67078 1.67067 1.67053 1.6704 1.67025 1.6701 1.66993 1.66977 1.66959 1.66942 1.66924 1.66906 1.66887 1.66869 1.6685 1.66833 1.66814 1.66797 1.66779 1.66763 1.66746 1.66731 1.66716 1.66702 1.66689 1.66677 1.66665 1.66654 1.66644 1.66634 1.66623 1.6661 1.66594 1.66571 1.66534 1.66477 1.66381 1.66224 1.65963 1.65531 1.6482 1.63664 1.61812 1.5892 1.5456 1.48312 1.39923 1.29516 1.17683 1.05368 0.935604 0.830063 0.740837 0.668482 0.611501 0.567513 0.533984 0.508636 0.489558 0.47524 0.464501 0.456447 0.450398 0.445851 0.44242 0.439829 0.437862 0.436368 0.435226 0.434355 0.433687 0.433177 0.432788 0.432494 0.432275 0.432118 0.432009 0.431941 0.431907 0.431902 0.431922 0.431965 0.432027 0.432107 0.432203 0.432312 0.432431 0.432558 0.432685 0.432805 0.432902 0.43296 0.432179 0.432135 0.432058 0.43196 0.431852 0.431743 0.43164 0.431548 0.431468 0.431406 0.431363 0.431343 0.431347 0.431383 0.431453 0.431565 0.431727 0.431951 0.432251 0.432648 0.433167 0.433846 0.434729 0.435883 0.43739 0.43937 0.441974 0.445416 0.449974 0.456029 0.464084 0.474818 0.489118 0.508163 0.533456 0.566902 0.610771 0.66759 0.739742 0.828736 0.934047 1.05195 1.17503 1.29344 1.39773 1.48192 1.54471 1.58858 1.61772 1.6364 1.64808 1.65527 1.65964 1.66229 1.66388 1.66485 1.66544 1.66581 1.66605 1.66622 1.66634 1.66645 1.66655 1.66665 1.66675 1.66687 1.66698 1.66712 1.66725 1.66739 1.66754 1.6677 1.66785 1.66802 1.66818 1.66836 1.66853 1.66871 1.66888 1.66906 1.66922 1.6694 1.66956 1.66973 1.66988 1.67003 1.67017 1.67031 1.67043 1.67056 1.67066 1.67076 1.67084 1.67093 1.67098 1.67104 1.67108 1.67111 1.67112 1.67113 1.67111 1.67109 1.67105 1.67101 1.67094 1.67088 1.67079 1.6707 1.67059 1.67048 1.67035 1.67022 1.67007 1.66993 1.66976 1.66961 1.66944 1.66927 1.66909 1.66892 1.66874 1.66856 1.66838 1.66821 1.66803 1.66787 1.6677 1.66754 1.66738 1.66724 1.66709 1.66696 1.66683 1.66672 1.66661 1.66651 1.66641 1.66632 1.66621 1.66609 1.66592 1.66569 1.66532 1.66473 1.66374 1.66213 1.65944 1.655 1.64771 1.63586 1.61693 1.58741 1.54303 1.47963 1.39483 1.29004 1.1714 1.0484 0.93084 0.826032 0.737589 0.665958 0.609589 0.56609 0.532939 0.507876 0.489011 0.47485 0.464224 0.456254 0.450265 0.44576 0.442361 0.43979 0.437838 0.436354 0.435219 0.434351 0.433684 0.433174 0.432784 0.432489 0.432268 0.432108 0.431996 0.431925 0.431886 0.431878 0.431893 0.43193 0.431986 0.432058 0.432145 0.432243 0.432349 0.43246 0.432569 0.432667 0.432745 0.432788 0.431996 0.431963 0.431902 0.431824 0.431735 0.431644 0.431556 0.431476 0.431408 0.431356 0.43132 0.431308 0.431319 0.43136 0.431434 0.431551 0.431716 0.431944 0.432246 0.432645 0.433163 0.43384 0.434717 0.435863 0.437356 0.439316 0.441891 0.445291 0.44979 0.455763 0.463704 0.474281 0.488367 0.50712 0.532022 0.56495 0.608149 0.664131 0.735292 0.823213 0.92752 1.04471 1.16758 1.28642 1.39168 1.47712 1.54117 1.58612 1.61608 1.63534 1.6474 1.65484 1.65937 1.66213 1.66378 1.66479 1.6654 1.66578 1.66602 1.66619 1.66631 1.66642 1.66651 1.66661 1.6667 1.66681 1.66692 1.66704 1.66716 1.6673 1.66744 1.66759 1.66774 1.6679 1.66805 1.66822 1.66838 1.66856 1.66872 1.66889 1.66905 1.66922 1.66937 1.66953 1.66968 1.66983 1.66996 1.67009 1.67021 1.67033 1.67043 1.67053 1.67061 1.67068 1.67074 1.6708 1.67083 1.67086 1.67087 1.67088 1.67086 1.67085 1.6708 1.67076 1.6707 1.67064 1.67055 1.67046 1.67036 1.67025 1.67012 1.67 1.66986 1.66972 1.66956 1.66941 1.66925 1.66909 1.66892 1.66875 1.66858 1.66841 1.66824 1.66807 1.6679 1.66775 1.66758 1.66744 1.66728 1.66715 1.66701 1.66689 1.66677 1.66666 1.66656 1.66647 1.66637 1.66628 1.66618 1.66606 1.66589 1.66566 1.66527 1.66466 1.66364 1.66197 1.65917 1.65458 1.64703 1.63479 1.61526 1.58492 1.53947 1.47481 1.38875 1.28302 1.16397 1.04119 0.924355 0.820553 0.733179 0.662531 0.606992 0.564157 0.531519 0.506843 0.488266 0.474316 0.463845 0.455987 0.45008 0.445633 0.442275 0.439734 0.437802 0.43633 0.435204 0.434341 0.433677 0.433168 0.432777 0.43248 0.432256 0.432093 0.431977 0.431902 0.431859 0.431845 0.431854 0.431885 0.431933 0.431997 0.432073 0.432159 0.432251 0.432345 0.432435 0.432515 0.432576 0.432609 0.431812 0.431787 0.431741 0.431679 0.431607 0.431533 0.43146 0.431394 0.431338 0.431296 0.43127 0.431265 0.431283 0.43133 0.43141 0.431532 0.431701 0.431932 0.432236 0.432636 0.433153 0.433826 0.434697 0.435831 0.437308 0.439242 0.441779 0.445127 0.449551 0.45542 0.463218 0.473597 0.487413 0.505799 0.530209 0.562484 0.604838 0.659762 0.729668 0.81622 0.919229 1.03547 1.15804 1.27737 1.38383 1.47086 1.53654 1.58288 1.61391 1.63393 1.6465 1.65428 1.65902 1.66191 1.66364 1.6647 1.66534 1.66573 1.66598 1.66615 1.66627 1.66637 1.66646 1.66655 1.66664 1.66674 1.66684 1.66695 1.66707 1.6672 1.66732 1.66747 1.6676 1.66776 1.6679 1.66806 1.66822 1.66838 1.66853 1.6687 1.66885 1.66901 1.66916 1.66931 1.66945 1.66959 1.66972 1.66985 1.66996 1.67007 1.67017 1.67026 1.67034 1.67041 1.67047 1.67052 1.67055 1.67058 1.67059 1.6706 1.67058 1.67057 1.67053 1.67049 1.67043 1.67036 1.67028 1.6702 1.67009 1.66999 1.66987 1.66975 1.66962 1.66949 1.66934 1.66919 1.66903 1.66888 1.66872 1.66856 1.66839 1.66824 1.66807 1.66792 1.66776 1.66761 1.66745 1.66731 1.66717 1.66705 1.66692 1.6668 1.66669 1.66659 1.6665 1.66641 1.66632 1.66624 1.66614 1.66603 1.66586 1.66561 1.66521 1.66457 1.6635 1.66174 1.65882 1.65401 1.64612 1.63337 1.61308 1.58166 1.5348 1.46852 1.38088 1.27397 1.15445 1.03199 0.916116 0.813614 0.727603 0.658203 0.603713 0.561715 0.529723 0.505534 0.48732 0.473637 0.463362 0.455646 0.44984 0.445467 0.442161 0.439657 0.43775 0.436296 0.43518 0.434325 0.433664 0.433156 0.432765 0.432467 0.43224 0.432074 0.431954 0.431874 0.431826 0.431806 0.431809 0.431832 0.431872 0.431926 0.43199 0.432064 0.432141 0.43222 0.432293 0.432357 0.432404 0.432429 0.431632 0.431614 0.431579 0.431531 0.431475 0.431416 0.431358 0.431305 0.43126 0.431229 0.431212 0.431216 0.431241 0.431296 0.431381 0.431508 0.431682 0.431916 0.432222 0.432621 0.433137 0.433805 0.434668 0.435788 0.437243 0.439146 0.441638 0.444922 0.449256 0.455001 0.462625 0.472767 0.486259 0.504205 0.528023 0.559515 0.600852 0.6545 0.722886 0.807767 0.90917 1.0242 1.14633 1.26618 1.37404 1.46301 1.53069 1.57877 1.61115 1.63213 1.64536 1.65355 1.65857 1.66162 1.66346 1.66458 1.66525 1.66567 1.66593 1.6661 1.66622 1.66632 1.6664 1.66649 1.66656 1.66666 1.66675 1.66685 1.66696 1.66708 1.6672 1.66733 1.66746 1.6676 1.66774 1.66789 1.66803 1.66819 1.66833 1.66849 1.66863 1.66878 1.66892 1.66907 1.6692 1.66933 1.66945 1.66958 1.66968 1.66979 1.66988 1.66997 1.67004 1.67012 1.67017 1.67022 1.67025 1.67028 1.67029 1.67029 1.67028 1.67026 1.67022 1.67019 1.67013 1.67007 1.66999 1.66991 1.66981 1.66971 1.6696 1.66949 1.66935 1.66923 1.66909 1.66895 1.6688 1.66866 1.6685 1.66835 1.66819 1.66804 1.66789 1.66774 1.66759 1.66745 1.66731 1.66718 1.66705 1.66693 1.66681 1.66671 1.6666 1.66651 1.66642 1.66635 1.66627 1.66619 1.66609 1.66598 1.66581 1.66555 1.66513 1.66445 1.66332 1.66146 1.65836 1.65328 1.64496 1.63155 1.61029 1.57751 1.5289 1.46062 1.37106 1.26277 1.14275 1.02077 0.906119 0.805225 0.72088 0.65299 0.599766 0.558775 0.527558 0.503955 0.486175 0.472813 0.462773 0.455227 0.449546 0.445261 0.442018 0.439558 0.437683 0.43625 0.435148 0.434301 0.433645 0.433139 0.432748 0.432448 0.432219 0.432049 0.431925 0.431841 0.431787 0.431761 0.431757 0.431773 0.431803 0.431847 0.431901 0.431961 0.432025 0.432089 0.432148 0.432198 0.432235 0.432254 0.43146 0.431447 0.431421 0.431385 0.431342 0.431296 0.431251 0.431211 0.431178 0.431157 0.43115 0.431162 0.431195 0.431256 0.431348 0.431479 0.431657 0.431894 0.432201 0.432601 0.433114 0.433776 0.434628 0.435731 0.437161 0.439027 0.441467 0.444675 0.448905 0.454505 0.461929 0.471795 0.484911 0.502348 0.525481 0.556065 0.596222 0.648384 0.714988 0.797894 0.897367 1.01089 1.13238 1.25273 1.36218 1.4534 1.52347 1.57367 1.60771 1.62988 1.64391 1.65264 1.65799 1.66126 1.66323 1.66443 1.66515 1.66559 1.66586 1.66604 1.66616 1.66626 1.66633 1.66641 1.66648 1.66656 1.66665 1.66674 1.66684 1.66695 1.66705 1.66718 1.6673 1.66743 1.66756 1.6677 1.66783 1.66798 1.66811 1.66826 1.66839 1.66854 1.66867 1.6688 1.66893 1.66906 1.66917 1.66929 1.66939 1.66949 1.66957 1.66966 1.66973 1.6698 1.66985 1.66989 1.66992 1.66995 1.66996 1.66996 1.66995 1.66993 1.6699 1.66986 1.6698 1.66975 1.66967 1.6696 1.6695 1.66941 1.6693 1.66919 1.66907 1.66895 1.66882 1.66869 1.66855 1.66841 1.66826 1.66812 1.66797 1.66784 1.66769 1.66755 1.66741 1.66728 1.66715 1.66703 1.66691 1.6668 1.66669 1.6666 1.6665 1.66642 1.66634 1.66627 1.6662 1.66613 1.66604 1.66592 1.66574 1.66547 1.66503 1.6643 1.66309 1.66109 1.65778 1.65235 1.6435 1.62927 1.60681 1.57236 1.52162 1.45095 1.35916 1.24931 1.12883 1.00752 0.894387 0.795426 0.713049 0.64693 0.59518 0.555359 0.525041 0.502115 0.48484 0.47185 0.462082 0.454734 0.449196 0.445014 0.441845 0.439437 0.437598 0.43619 0.435105 0.434268 0.433619 0.433116 0.432726 0.432425 0.432194 0.432021 0.431892 0.431803 0.431743 0.431711 0.4317 0.431708 0.431729 0.431764 0.431806 0.431855 0.431907 0.431958 0.432004 0.432043 0.43207 0.432085 0.431296 0.431286 0.431268 0.431242 0.43121 0.431177 0.431144 0.431115 0.431093 0.431082 0.431084 0.431104 0.431144 0.431212 0.431309 0.431446 0.431627 0.431867 0.432175 0.432574 0.433083 0.433738 0.434577 0.435661 0.437061 0.438885 0.441264 0.444388 0.4485 0.453935 0.461134 0.470689 0.483382 0.500244 0.522606 0.552165 0.590989 0.641466 0.706038 0.786666 0.883871 0.995568 1.11616 1.23693 1.34807 1.44184 1.5147 1.56743 1.60346 1.62709 1.64212 1.6515 1.65728 1.66081 1.66294 1.66424 1.66502 1.6655 1.66579 1.66597 1.66609 1.66619 1.66625 1.66633 1.66639 1.66646 1.66654 1.66662 1.66671 1.66681 1.6669 1.66701 1.66712 1.66725 1.66736 1.66749 1.66762 1.66775 1.66788 1.66801 1.66814 1.66827 1.6684 1.66852 1.66864 1.66876 1.66887 1.66898 1.66907 1.66917 1.66925 1.66933 1.66939 1.66946 1.6695 1.66955 1.66957 1.6696 1.66961 1.66961 1.6696 1.66958 1.66955 1.66952 1.66946 1.66941 1.66934 1.66927 1.66918 1.66909 1.66899 1.66889 1.66877 1.66866 1.66853 1.66841 1.66828 1.66815 1.66801 1.66788 1.66774 1.66761 1.66747 1.66735 1.66722 1.6671 1.66698 1.66687 1.66675 1.66666 1.66656 1.66648 1.66639 1.66632 1.66625 1.66619 1.66612 1.66606 1.66597 1.66585 1.66567 1.66538 1.6649 1.66411 1.6628 1.66063 1.65706 1.6512 1.64169 1.62645 1.60252 1.56606 1.51279 1.43933 1.34501 1.2335 1.11265 0.992259 0.880973 0.784281 0.704174 0.640074 0.589997 0.551497 0.522194 0.500032 0.483325 0.470753 0.461292 0.454168 0.448792 0.444728 0.441642 0.439294 0.437496 0.436117 0.435052 0.434228 0.433586 0.433088 0.432698 0.432397 0.432164 0.431988 0.431855 0.431761 0.431696 0.431658 0.431639 0.431639 0.431652 0.431677 0.43171 0.431748 0.431788 0.431827 0.431863 0.431892 0.431913 0.431923 0.43114 0.431134 0.431122 0.431104 0.431082 0.431059 0.431037 0.431018 0.431006 0.431004 0.431015 0.431043 0.431091 0.431164 0.431267 0.431408 0.431593 0.431835 0.432144 0.43254 0.433044 0.43369 0.434514 0.435576 0.436944 0.43872 0.441032 0.444062 0.448043 0.453297 0.460245 0.469459 0.481685 0.497915 0.519428 0.547858 0.585209 0.633817 0.696119 0.774175 0.86877 0.978277 1.09768 1.21869 1.33157 1.42815 1.50419 1.55987 1.59829 1.62367 1.63991 1.6501 1.65639 1.66024 1.66258 1.664 1.66486 1.66538 1.66569 1.66589 1.66601 1.6661 1.66617 1.66623 1.66629 1.66635 1.66642 1.66649 1.66657 1.66665 1.66674 1.66684 1.66694 1.66705 1.66716 1.66728 1.66739 1.66751 1.66763 1.66775 1.66787 1.668 1.66811 1.66823 1.66834 1.66845 1.66855 1.66865 1.66874 1.66883 1.6689 1.66898 1.66904 1.6691 1.66914 1.66919 1.66921 1.66923 1.66924 1.66924 1.66923 1.66922 1.66918 1.66915 1.6691 1.66905 1.66898 1.66892 1.66883 1.66875 1.66865 1.66856 1.66845 1.66835 1.66823 1.66811 1.66799 1.66787 1.66774 1.66762 1.66749 1.66737 1.66725 1.66713 1.66701 1.6669 1.66679 1.66669 1.66659 1.66651 1.66642 1.66635 1.66627 1.66621 1.66615 1.6661 1.66604 1.66598 1.66589 1.66577 1.66557 1.66526 1.66474 1.66387 1.66244 1.66006 1.65615 1.64978 1.63945 1.62299 1.59729 1.55843 1.5022 1.42557 1.32846 1.21526 1.09421 0.975043 0.865963 0.771882 0.694338 0.632493 0.58427 0.54723 0.519045 0.497725 0.481644 0.469534 0.460411 0.453534 0.448337 0.444402 0.44141 0.439128 0.437377 0.436031 0.434987 0.434178 0.433546 0.433052 0.432665 0.432364 0.432129 0.43195 0.431814 0.431715 0.431645 0.431601 0.431576 0.431569 0.431574 0.43159 0.431613 0.431641 0.431671 0.431701 0.431727 0.431748 0.431763 0.43177 0.430994 0.430991 0.430984 0.430973 0.430959 0.430945 0.430932 0.430923 0.430919 0.430926 0.430945 0.43098 0.431034 0.431114 0.431222 0.431367 0.431555 0.431798 0.432106 0.4325 0.432998 0.433633 0.434441 0.435477 0.436808 0.438532 0.440772 0.443699 0.447537 0.452594 0.459273 0.468117 0.479839 0.495386 0.515981 0.54319 0.578945 0.625521 0.685337 0.76054 0.852179 0.95911 1.07695 1.19796 1.31254 1.41212 1.49172 1.55079 1.59202 1.61949 1.6372 1.64836 1.65528 1.65954 1.66213 1.66371 1.66466 1.66524 1.66558 1.66579 1.66592 1.66602 1.66608 1.66613 1.66618 1.66624 1.66629 1.66635 1.66642 1.66649 1.66657 1.66666 1.66675 1.66684 1.66694 1.66705 1.66715 1.66726 1.66737 1.66748 1.66759 1.6677 1.66781 1.66792 1.66802 1.66812 1.66821 1.66831 1.66839 1.66848 1.66854 1.66862 1.66867 1.66873 1.66876 1.66881 1.66883 1.66885 1.66885 1.66886 1.66885 1.66883 1.6688 1.66877 1.66872 1.66868 1.66861 1.66855 1.66847 1.6684 1.66831 1.66822 1.66812 1.66802 1.66791 1.66781 1.66769 1.66758 1.66746 1.66735 1.66723 1.66713 1.66701 1.66691 1.6668 1.6667 1.6666 1.66651 1.66642 1.66635 1.66627 1.66621 1.66615 1.6661 1.66605 1.666 1.66595 1.66589 1.6658 1.66568 1.66546 1.66512 1.66454 1.66358 1.66198 1.65935 1.65504 1.64802 1.6367 1.61876 1.59095 1.54926 1.48964 1.40945 1.30938 1.19452 1.07353 0.955961 0.849474 0.758347 0.683644 0.62427 0.578064 0.542606 0.515631 0.49522 0.479815 0.468203 0.459446 0.452837 0.447835 0.444041 0.44115 0.43894 0.437241 0.435931 0.434912 0.43412 0.433498 0.433011 0.432627 0.432327 0.432091 0.43191 0.43177 0.431667 0.431592 0.431542 0.431511 0.431496 0.431494 0.431502 0.431516 0.431536 0.431557 0.431578 0.431596 0.431611 0.431621 0.431625 0.430856 0.430856 0.430853 0.430848 0.430842 0.430835 0.43083 0.430829 0.430834 0.430848 0.430874 0.430916 0.430976 0.431061 0.431173 0.431322 0.431512 0.431756 0.432063 0.432453 0.432944 0.433567 0.434356 0.435365 0.436656 0.438324 0.440484 0.443301 0.446988 0.451835 0.458226 0.466676 0.477863 0.492686 0.512306 0.538218 0.572273 0.616673 0.67381 0.7459 0.834247 0.938198 1.05405 1.17471 1.29084 1.39354 1.47704 1.53996 1.58445 1.61441 1.63388 1.64622 1.65392 1.65867 1.66158 1.66335 1.66442 1.66506 1.66545 1.66568 1.66582 1.66592 1.66598 1.66603 1.66607 1.66611 1.66615 1.66621 1.66626 1.66633 1.66639 1.66647 1.66654 1.66663 1.66671 1.66681 1.6669 1.667 1.6671 1.6672 1.6673 1.6674 1.6675 1.6676 1.66769 1.66778 1.66787 1.66795 1.66803 1.66811 1.66817 1.66824 1.66828 1.66834 1.66837 1.66841 1.66843 1.66845 1.66845 1.66846 1.66845 1.66843 1.66841 1.66838 1.66833 1.66829 1.66823 1.66817 1.6681 1.66803 1.66794 1.66786 1.66777 1.66768 1.66758 1.66748 1.66738 1.66728 1.66717 1.66707 1.66696 1.66687 1.66676 1.66667 1.66657 1.66649 1.6664 1.66632 1.66624 1.66618 1.66612 1.66607 1.66601 1.66597 1.66593 1.6659 1.66585 1.66579 1.6657 1.66556 1.66533 1.66494 1.66429 1.66321 1.66142 1.65848 1.65366 1.64585 1.63334 1.61362 1.58331 1.53834 1.47485 1.39078 1.28763 1.17128 1.05069 0.935145 0.831654 0.743816 0.672211 0.6155 0.571452 0.53768 0.51199 0.492544 0.477857 0.466776 0.458408 0.452084 0.447289 0.443645 0.440863 0.438732 0.437089 0.435817 0.434826 0.434052 0.433442 0.432963 0.432583 0.432285 0.432049 0.431865 0.431723 0.431616 0.431537 0.431481 0.431444 0.431424 0.431414 0.431415 0.431422 0.431434 0.431447 0.431461 0.431472 0.431482 0.431487 0.431489 0.430728 0.43073 0.43073 0.430731 0.43073 0.43073 0.430732 0.430738 0.43075 0.430771 0.430803 0.430851 0.430917 0.431006 0.431122 0.431274 0.431465 0.431709 0.432015 0.4324 0.432882 0.433491 0.43426 0.435239 0.436488 0.438096 0.440173 0.442874 0.446399 0.451027 0.457115 0.465154 0.47578 0.489845 0.508445 0.532999 0.56527 0.607379 0.661672 0.730418 0.815153 0.915708 1.0291 1.14897 1.26639 1.37221 1.45989 1.52712 1.57536 1.60825 1.62981 1.64359 1.65224 1.6576 1.66089 1.6629 1.66412 1.66485 1.66529 1.66556 1.66571 1.66581 1.66587 1.66591 1.66594 1.66598 1.66601 1.66605 1.6661 1.66615 1.6662 1.66627 1.66633 1.66641 1.66648 1.66656 1.66664 1.66673 1.66682 1.66691 1.66699 1.66709 1.66717 1.66726 1.66735 1.66743 1.66751 1.66759 1.66765 1.66773 1.66778 1.66784 1.66789 1.66794 1.66797 1.668 1.66802 1.66804 1.66804 1.66805 1.66803 1.66802 1.668 1.66797 1.66793 1.66789 1.66783 1.66778 1.66771 1.66765 1.66757 1.6675 1.66741 1.66733 1.66724 1.66715 1.66706 1.66697 1.66687 1.66678 1.66668 1.6666 1.6665 1.66642 1.66634 1.66626 1.66619 1.66612 1.66606 1.66601 1.66595 1.66591 1.66587 1.66584 1.66581 1.66578 1.66574 1.66568 1.66559 1.66544 1.66517 1.66473 1.66399 1.66276 1.66072 1.65739 1.65195 1.64319 1.62923 1.60739 1.57412 1.52538 1.45759 1.36936 1.26313 1.14556 1.02581 0.912763 0.81268 0.728448 0.660173 0.606286 0.564512 0.532509 0.508165 0.48973 0.475794 0.465267 0.457308 0.451282 0.446705 0.44322 0.440553 0.438505 0.436921 0.435692 0.43473 0.433976 0.43338 0.432909 0.432534 0.432238 0.432002 0.431818 0.431673 0.431563 0.43148 0.43142 0.431377 0.431351 0.431336 0.43133 0.43133 0.431335 0.431342 0.431349 0.431355 0.43136 0.431361 0.431362 0.430609 0.430612 0.430616 0.43062 0.430624 0.43063 0.430638 0.43065 0.430668 0.430695 0.430733 0.430786 0.430856 0.43095 0.431069 0.431223 0.431415 0.431658 0.431961 0.43234 0.432813 0.433407 0.434154 0.435101 0.436306 0.43785 0.439839 0.442419 0.445778 0.450177 0.455953 0.463566 0.473614 0.486896 0.504444 0.527595 0.558021 0.597748 0.649066 0.71427 0.795098 0.891847 1.00226 1.12082 1.23912 1.34794 1.44 1.51196 1.56448 1.60078 1.62485 1.64036 1.65016 1.65626 1.66003 1.66234 1.66375 1.6646 1.6651 1.66541 1.66558 1.66569 1.66575 1.66579 1.66581 1.66584 1.66586 1.6659 1.66593 1.66597 1.66601 1.66606 1.66611 1.66618 1.66624 1.66631 1.66638 1.66645 1.66653 1.66661 1.66668 1.66677 1.66684 1.66692 1.66699 1.66707 1.66714 1.66721 1.66727 1.66733 1.66739 1.66744 1.66748 1.66752 1.66755 1.66758 1.6676 1.66762 1.66762 1.66762 1.66761 1.6676 1.66757 1.66755 1.66751 1.66748 1.66743 1.66738 1.66732 1.66726 1.66719 1.66712 1.66704 1.66697 1.66689 1.66681 1.66672 1.66664 1.66656 1.66648 1.66639 1.66632 1.66624 1.66617 1.6661 1.66603 1.66597 1.66592 1.66587 1.66583 1.66579 1.66576 1.66573 1.66571 1.66568 1.66566 1.66562 1.66556 1.66546 1.66529 1.66498 1.66447 1.66361 1.66219 1.65985 1.65604 1.64984 1.63992 1.6242 1.59984 1.56313 1.5101 1.43757 1.34499 1.23582 1.11743 0.999057 0.889022 0.792753 0.712419 0.647669 0.596739 0.557327 0.527154 0.504201 0.486808 0.473647 0.463694 0.456156 0.450439 0.446089 0.442769 0.440222 0.43826 0.436738 0.435554 0.434623 0.433891 0.43331 0.432849 0.43248 0.432187 0.431953 0.431768 0.431621 0.431509 0.431422 0.431358 0.431311 0.431279 0.431258 0.431247 0.431241 0.431241 0.431241 0.431243 0.431245 0.431245 0.431244 0.431243 0.430498 0.430502 0.430509 0.430516 0.430525 0.430536 0.430548 0.430566 0.430589 0.430621 0.430664 0.430721 0.430796 0.430892 0.431014 0.431169 0.431362 0.431603 0.431902 0.432275 0.432737 0.433315 0.434038 0.434952 0.43611 0.437589 0.439487 0.441942 0.445131 0.449295 0.454751 0.461929 0.471387 0.483872 0.500348 0.522069 0.550609 0.587895 0.636139 0.697641 0.774306 0.866857 0.973764 1.09039 1.20905 1.32059 1.41709 1.49416 1.5515 1.59175 1.61879 1.63638 1.64758 1.6546 1.65896 1.66165 1.66328 1.66428 1.66487 1.66523 1.66543 1.66555 1.66562 1.66566 1.66568 1.6657 1.66571 1.66573 1.66575 1.66578 1.66581 1.66585 1.66589 1.66594 1.66599 1.66605 1.6661 1.66617 1.66623 1.6663 1.66636 1.66644 1.6665 1.66657 1.66663 1.6667 1.66676 1.66683 1.66688 1.66694 1.66698 1.66703 1.66706 1.6671 1.66713 1.66715 1.66717 1.66718 1.66718 1.66719 1.66718 1.66717 1.66714 1.66712 1.66709 1.66706 1.66701 1.66697 1.66691 1.66686 1.6668 1.66674 1.66667 1.6666 1.66653 1.66646 1.66638 1.66632 1.66624 1.66617 1.6661 1.66604 1.66597 1.66591 1.66585 1.6658 1.66575 1.66571 1.66567 1.66564 1.66561 1.6656 1.66558 1.66557 1.66555 1.66553 1.66549 1.66543 1.66531 1.66511 1.66475 1.66415 1.66315 1.66149 1.65877 1.65435 1.64723 1.63589 1.61807 1.59071 1.55002 1.49216 1.41452 1.31754 1.20572 1.08705 0.97066 0.864162 0.772096 0.695914 0.634846 0.586969 0.549981 0.521678 0.500142 0.483812 0.471441 0.462072 0.454965 0.449565 0.445447 0.442296 0.439872 0.438 0.436543 0.435405 0.434508 0.433799 0.433234 0.432783 0.432421 0.432132 0.4319 0.431715 0.431567 0.431453 0.431363 0.431295 0.431245 0.431209 0.431183 0.431167 0.431156 0.43115 0.431146 0.431144 0.431141 0.431138 0.431134 0.431132 0.430395 0.430401 0.430409 0.43042 0.430432 0.430447 0.430464 0.430486 0.430513 0.43055 0.430596 0.430658 0.430735 0.430834 0.430958 0.431113 0.431306 0.431545 0.431839 0.432204 0.432654 0.433215 0.433914 0.434793 0.435902 0.437314 0.43912 0.441448 0.444462 0.448389 0.453523 0.460261 0.469125 0.480806 0.496202 0.516481 0.543117 0.57793 0.62304 0.680724 0.753012 0.841007 0.943875 1.05791 1.17625 1.29005 1.39092 1.47339 1.53606 1.58086 1.61138 1.63147 1.64438 1.65253 1.65762 1.66078 1.66271 1.66389 1.6646 1.66502 1.66526 1.66541 1.66548 1.66552 1.66554 1.66555 1.66556 1.66557 1.66557 1.66559 1.66561 1.66564 1.66566 1.6657 1.66574 1.66578 1.66583 1.66588 1.66593 1.66599 1.66604 1.6661 1.66616 1.66622 1.66627 1.66633 1.66638 1.66643 1.66648 1.66653 1.66657 1.66661 1.66664 1.66667 1.66669 1.66672 1.66673 1.66674 1.66674 1.66675 1.66674 1.66673 1.66671 1.66669 1.66666 1.66663 1.66659 1.66655 1.6665 1.66645 1.6664 1.66635 1.66628 1.66623 1.66616 1.66611 1.66604 1.66598 1.66592 1.66586 1.6658 1.66575 1.66569 1.66565 1.6656 1.66556 1.66552 1.6655 1.66547 1.66545 1.66543 1.66543 1.66542 1.66542 1.66541 1.66539 1.66535 1.66528 1.66514 1.6649 1.66447 1.66376 1.66257 1.66061 1.65741 1.65225 1.64399 1.63092 1.61057 1.5797 1.53444 1.47123 1.38821 1.28692 1.17291 1.05463 0.940886 0.838453 0.750943 0.679123 0.621853 0.577088 0.542555 0.51614 0.496034 0.480773 0.469199 0.460419 0.453747 0.448667 0.444784 0.441806 0.439508 0.437727 0.436337 0.435246 0.434384 0.433699 0.433151 0.432713 0.432358 0.432074 0.431844 0.43166 0.431512 0.431396 0.431304 0.431234 0.431179 0.43114 0.43111 0.43109 0.431075 0.431065 0.431056 0.43105 0.431044 0.431038 0.431032 0.431028 0.4303 0.430307 0.430317 0.43033 0.430345 0.430363 0.430384 0.430409 0.430441 0.430481 0.430531 0.430595 0.430674 0.430775 0.4309 0.431056 0.431247 0.431483 0.431771 0.432128 0.432565 0.433108 0.433782 0.434625 0.435684 0.437028 0.43874 0.44094 0.44378 0.447469 0.452279 0.458578 0.466848 0.477728 0.492048 0.510891 0.535626 0.567962 0.609914 0.663709 0.731461 0.814589 0.912906 1.02364 1.14088 1.25632 1.36127 1.4493 1.51778 1.56773 1.60234 1.62542 1.6404 1.64994 1.65594 1.65968 1.66199 1.6634 1.66426 1.66477 1.66507 1.66524 1.66533 1.66537 1.66539 1.6654 1.66539 1.6654 1.66539 1.6654 1.6654 1.66542 1.66543 1.66546 1.66548 1.66552 1.66555 1.66559 1.66563 1.66567 1.66571 1.66576 1.66581 1.66586 1.6659 1.66595 1.66599 1.66604 1.66608 1.66612 1.66615 1.66619 1.66621 1.66624 1.66626 1.66628 1.66629 1.6663 1.6663 1.6663 1.66629 1.66628 1.66626 1.66625 1.66622 1.66619 1.66616 1.66613 1.66608 1.66604 1.66599 1.66595 1.6659 1.66585 1.66579 1.66575 1.66569 1.66564 1.66559 1.66555 1.6655 1.66546 1.66541 1.66538 1.66534 1.66532 1.66529 1.66528 1.66526 1.66526 1.66525 1.66526 1.66526 1.66526 1.66526 1.66525 1.6652 1.66512 1.66494 1.66465 1.66413 1.66327 1.66183 1.6595 1.65571 1.64963 1.63996 1.62479 1.60143 1.56643 1.51599 1.44697 1.35843 1.25311 1.13755 1.02044 0.910047 0.812184 0.729536 0.662236 0.608832 0.567204 0.535128 0.510598 0.491917 0.477723 0.466943 0.458752 0.452515 0.447755 0.444108 0.441302 0.439131 0.437443 0.436121 0.435079 0.434252 0.433593 0.433063 0.432637 0.432291 0.432012 0.431785 0.431603 0.431455 0.431338 0.431245 0.431172 0.431116 0.431073 0.43104 0.431016 0.430998 0.430984 0.430972 0.430962 0.430953 0.430945 0.430938 0.430933 0.430213 0.43022 0.430232 0.430247 0.430265 0.430285 0.430309 0.430337 0.430372 0.430414 0.430467 0.430533 0.430615 0.43