# vtk DataFile Version 3.0
Immiscible displacement
ASCII
DATASET RECTILINEAR_GRID
DIMENSIONS 200 200 1
X_COORDINATES 200 double
1 2 3 4 5 6 7 8 9 10 11 12 13 14 15 16 17 18 19 20 21 22 23 24 25 26 27 28 29 30 31 32 33 34 35 36 37 38 39 40 41 42 43 44 45 46 47 48 49 50 51 52 53 54 55 56 57 58 59 60 61 62 63 64 65 66 67 68 69 70 71 72 73 74 75 76 77 78 79 80 81 82 83 84 85 86 87 88 89 90 91 92 93 94 95 96 97 98 99 100 101 102 103 104 105 106 107 108 109 110 111 112 113 114 115 116 117 118 119 120 121 122 123 124 125 126 127 128 129 130 131 132 133 134 135 136 137 138 139 140 141 142 143 144 145 146 147 148 149 150 151 152 153 154 155 156 157 158 159 160 161 162 163 164 165 166 167 168 169 170 171 172 173 174 175 176 177 178 179 180 181 182 183 184 185 186 187 188 189 190 191 192 193 194 195 196 197 198 199 200 
Y_COORDINATES 200 double
1 2 3 4 5 6 7 8 9 10 11 12 13 14 15 16 17 18 19 20 21 22 23 24 25 26 27 28 29 30 31 32 33 34 35 36 37 38 39 40 41 42 43 44 45 46 47 48 49 50 51 52 53 54 55 56 57 58 59 60 61 62 63 64 65 66 67 68 69 70 71 72 73 74 75 76 77 78 79 80 81 82 83 84 85 86 87 88 89 90 91 92 93 94 95 96 97 98 99 100 101 102 103 104 105 106 107 108 109 110 111 112 113 114 115 116 117 118 119 120 121 122 123 124 125 126 127 128 129 130 131 132 133 134 135 136 137 138 139 140 141 142 143 144 145 146 147 148 149 150 151 152 153 154 155 156 157 158 159 160 161 162 163 164 165 166 167 168 169 170 171 172 173 174 175 176 177 178 179 180 181 182 183 184 185 186 187 188 189 190 191 192 193 194 195 196 197 198 199 200 
Z_COORDINATES 1 double
0
POINT_DATA 40000
SCALARS rho double 1
LOOKUP_TABLE default
0.441855 0.441744 0.441593 0.441435 0.441288 0.44116 0.441054 0.44097 0.440907 0.440864 0.440837 0.440827 0.44083 0.440847 0.440877 0.440926 0.440995 0.441093 0.441232 0.441428 0.441704 0.442095 0.442642 0.443408 0.444473 0.445948 0.44798 0.450768 0.454576 0.459762 0.466796 0.476313 0.489143 0.506389 0.529466 0.56018 0.600722 0.653599 0.721318 0.805768 0.907139 1.02269 1.14595 1.26742 1.37712 1.46786 1.53707 1.58644 1.61994 1.64197 1.65625 1.66553 1.67166 1.67587 1.67887 1.68115 1.68297 1.68451 1.68585 1.68706 1.68817 1.6892 1.69016 1.69107 1.69191 1.69271 1.69344 1.69414 1.69478 1.69538 1.69593 1.69645 1.69691 1.69735 1.69774 1.6981 1.69843 1.69873 1.69899 1.69924 1.69945 1.69965 1.69982 1.69998 1.70011 1.70024 1.70034 1.70044 1.70051 1.70059 1.70064 1.7007 1.70074 1.70078 1.70081 1.70084 1.70085 1.70087 1.70087 1.70088 1.70087 1.70087 1.70086 1.70084 1.70082 1.70079 1.70075 1.70071 1.70066 1.7006 1.70052 1.70045 1.70035 1.70024 1.70012 1.69998 1.69982 1.69965 1.69945 1.69923 1.69898 1.69871 1.6984 1.69808 1.6977 1.69731 1.69687 1.69639 1.69587 1.69531 1.6947 1.69405 1.69335 1.6926 1.6918 1.69095 1.69003 1.68906 1.68802 1.6869 1.68568 1.68433 1.68278 1.68094 1.67864 1.6756 1.67135 1.66514 1.65575 1.64131 1.61902 1.58515 1.53529 1.46551 1.37422 1.2641 1.14245 1.0193 0.904062 0.803124 0.719132 0.651836 0.599321 0.559076 0.528599 0.505709 0.488614 0.475904 0.466487 0.459536 0.454423 0.450679 0.447947 0.445968 0.44454 0.44352 0.442795 0.442286 0.441931 0.441686 0.441518 0.441405 0.441327 0.441276 0.441241 0.441219 0.441207 0.441204 0.44121 0.441228 0.441258 0.441303 0.441367 0.441451 0.441556 0.441683 0.441828 0.441984 0.442135 0.442246 0.441719 0.441634 0.441506 0.441366 0.441231 0.441112 0.441011 0.440931 0.44087 0.440829 0.440803 0.440793 0.440795 0.440813 0.440842 0.44089 0.440958 0.441057 0.441193 0.44139 0.441664 0.442054 0.442597 0.443361 0.444421 0.445891 0.447912 0.45069 0.454479 0.459641 0.46664 0.476111 0.488875 0.506034 0.528992 0.55955 0.599887 0.652509 0.719922 0.804038 0.905087 1.0204 1.14358 1.26517 1.37518 1.46633 1.53595 1.58568 1.61945 1.64167 1.65606 1.66542 1.67159 1.67582 1.67884 1.68113 1.68295 1.68449 1.68582 1.68704 1.68814 1.68917 1.69013 1.69103 1.69187 1.69267 1.6934 1.6941 1.69474 1.69534 1.69589 1.69641 1.69687 1.69731 1.6977 1.69807 1.69839 1.6987 1.69896 1.69921 1.69942 1.69963 1.69979 1.69996 1.70009 1.70022 1.70032 1.70042 1.7005 1.70058 1.70063 1.70069 1.70073 1.70078 1.7008 1.70083 1.70084 1.70087 1.70086 1.70088 1.70087 1.70087 1.70085 1.70084 1.70081 1.70078 1.70074 1.7007 1.70064 1.70059 1.70051 1.70043 1.70033 1.70023 1.70009 1.69996 1.69979 1.69962 1.69942 1.6992 1.69895 1.69868 1.69837 1.69804 1.69767 1.69727 1.69682 1.69635 1.69583 1.69527 1.69466 1.69401 1.69331 1.69256 1.69176 1.69091 1.69 1.68903 1.68799 1.68688 1.68565 1.68431 1.68275 1.68092 1.67861 1.67556 1.67128 1.66503 1.65556 1.641 1.61852 1.58438 1.53416 1.46396 1.37226 1.26184 1.14008 1.01701 0.902015 0.801402 0.717745 0.650757 0.598496 0.558456 0.528133 0.505363 0.488354 0.475709 0.466338 0.459422 0.454332 0.450606 0.447885 0.445915 0.444492 0.443477 0.442754 0.442248 0.441893 0.44165 0.441482 0.441369 0.441292 0.441241 0.441206 0.441185 0.441172 0.44117 0.441176 0.441193 0.441222 0.441267 0.441327 0.441407 0.441506 0.441625 0.441758 0.441897 0.442024 0.442108 0.441514 0.441453 0.441353 0.441238 0.441123 0.441018 0.440928 0.440856 0.440801 0.440763 0.440739 0.440731 0.440733 0.440751 0.44078 0.440827 0.440894 0.440991 0.441127 0.441321 0.441593 0.44198 0.442519 0.443277 0.444327 0.445784 0.447788 0.450539 0.454293 0.459406 0.466335 0.475711 0.488346 0.505328 0.528047 0.55829 0.598216 0.650323 0.717119 0.800554 0.900945 1.01576 1.13875 1.26056 1.37117 1.46313 1.53361 1.58407 1.6184 1.641 1.65565 1.66516 1.67144 1.67572 1.67877 1.68108 1.6829 1.68445 1.68578 1.68699 1.68809 1.68912 1.69007 1.69098 1.69181 1.69261 1.69334 1.69404 1.69468 1.69528 1.69583 1.69635 1.69681 1.69726 1.69765 1.69802 1.69834 1.69865 1.69892 1.69917 1.69939 1.69959 1.69976 1.69993 1.70006 1.7002 1.7003 1.70041 1.70048 1.70057 1.70062 1.70069 1.70072 1.70077 1.7008 1.70083 1.70084 1.70086 1.70087 1.70088 1.70087 1.70087 1.70085 1.70084 1.7008 1.70078 1.70073 1.70069 1.70063 1.70058 1.70049 1.70041 1.70031 1.7002 1.70007 1.69993 1.69976 1.69959 1.69938 1.69916 1.6989 1.69863 1.69832 1.69799 1.69761 1.69721 1.69677 1.69629 1.69577 1.69521 1.6946 1.69395 1.69325 1.6925 1.6917 1.69085 1.68994 1.68898 1.68794 1.68683 1.68561 1.68426 1.68271 1.68086 1.67854 1.67546 1.67112 1.66478 1.65515 1.64032 1.61745 1.58274 1.53179 1.46074 1.36822 1.25721 1.13524 1.01237 0.897884 0.797935 0.714961 0.64859 0.596845 0.557213 0.527205 0.504672 0.487838 0.475323 0.466045 0.459198 0.454156 0.450465 0.44777 0.445817 0.444406 0.4434 0.442682 0.442179 0.441826 0.441585 0.441418 0.441307 0.441229 0.44118 0.441145 0.441124 0.441111 0.441109 0.441113 0.441129 0.441156 0.441196 0.441251 0.441324 0.441411 0.441515 0.441628 0.441742 0.441841 0.441902 0.441274 0.44123 0.441156 0.441066 0.440974 0.440888 0.440812 0.440751 0.440703 0.440671 0.440651 0.440645 0.440649 0.440667 0.440696 0.440743 0.440809 0.440905 0.441038 0.441231 0.441499 0.441881 0.442413 0.443162 0.444198 0.445636 0.447612 0.450325 0.454025 0.459063 0.465889 0.475123 0.487563 0.504281 0.526644 0.556415 0.595728 0.64706 0.712927 0.795332 0.894714 1.00875 1.13141 1.25351 1.36498 1.45817 1.52993 1.58152 1.61671 1.63992 1.65498 1.66475 1.67118 1.67555 1.67866 1.68099 1.68284 1.68438 1.68572 1.68693 1.68803 1.68906 1.69001 1.69091 1.69174 1.69254 1.69327 1.69397 1.69461 1.69521 1.69576 1.69628 1.69675 1.69719 1.69759 1.69796 1.69829 1.6986 1.69887 1.69913 1.69935 1.69956 1.69974 1.69991 1.70004 1.70018 1.70029 1.7004 1.70048 1.70056 1.70062 1.70069 1.70073 1.70078 1.7008 1.70084 1.70085 1.70088 1.70088 1.70089 1.70088 1.70088 1.70086 1.70084 1.70081 1.70079 1.70074 1.7007 1.70063 1.70057 1.70049 1.7004 1.70029 1.70019 1.70005 1.69991 1.69973 1.69956 1.69934 1.69912 1.69886 1.69858 1.69827 1.69793 1.69755 1.69715 1.6967 1.69623 1.6957 1.69514 1.69453 1.69388 1.69317 1.69243 1.69163 1.69079 1.68987 1.68892 1.68788 1.68677 1.68555 1.6842 1.68264 1.68078 1.67842 1.67529 1.67086 1.66435 1.65446 1.63923 1.61574 1.58015 1.52806 1.45572 1.36199 1.25013 1.12789 1.00537 0.891675 0.79274 0.7108 0.645355 0.594382 0.555361 0.525823 0.503644 0.487073 0.474751 0.465614 0.45887 0.453902 0.450264 0.447606 0.44568 0.444288 0.443294 0.442584 0.442088 0.441739 0.4415 0.441334 0.441224 0.441147 0.441098 0.441063 0.441042 0.441028 0.441025 0.441028 0.441041 0.441063 0.441098 0.441144 0.441206 0.441279 0.441364 0.441455 0.441543 0.441616 0.441659 0.441015 0.440985 0.440931 0.440866 0.440795 0.440728 0.440668 0.44062 0.440582 0.440557 0.440542 0.44054 0.440546 0.440566 0.440595 0.440643 0.440708 0.440803 0.440934 0.441124 0.441387 0.441763 0.442286 0.443022 0.44404 0.445452 0.447391 0.450053 0.453681 0.45862 0.465309 0.474356 0.486539 0.502909 0.524804 0.553954 0.592456 0.642766 0.707401 0.788426 0.886442 0.999386 1.12155 1.24396 1.35652 1.45132 1.5248 1.57793 1.61431 1.63838 1.654 1.66414 1.67079 1.67531 1.67849 1.68087 1.68274 1.6843 1.68564 1.68685 1.68795 1.68898 1.68993 1.69083 1.69167 1.69246 1.69319 1.69389 1.69453 1.69514 1.69569 1.69621 1.69669 1.69713 1.69753 1.69791 1.69824 1.69856 1.69883 1.6991 1.69932 1.69954 1.69972 1.69989 1.70003 1.70017 1.70029 1.7004 1.70048 1.70057 1.70063 1.7007 1.70075 1.7008 1.70082 1.70086 1.70088 1.7009 1.7009 1.70091 1.7009 1.7009 1.70088 1.70087 1.70083 1.7008 1.70075 1.70071 1.70064 1.70058 1.70049 1.7004 1.70029 1.70018 1.70004 1.69989 1.69971 1.69953 1.69931 1.69908 1.69882 1.69854 1.69822 1.69788 1.69749 1.69709 1.69664 1.69616 1.69563 1.69507 1.69445 1.6938 1.6931 1.69235 1.69155 1.69071 1.6898 1.68884 1.6878 1.68669 1.68547 1.68412 1.68254 1.68066 1.67825 1.67503 1.67047 1.66373 1.65348 1.63766 1.61331 1.57652 1.52288 1.44881 1.35348 1.24054 1.11802 0.996019 0.883433 0.785873 0.705312 0.641098 0.591143 0.552928 0.524009 0.502294 0.486069 0.474002 0.465052 0.458443 0.453573 0.450006 0.447398 0.445508 0.444141 0.443164 0.442467 0.441979 0.441635 0.4414 0.441236 0.441127 0.44105 0.441001 0.440965 0.440944 0.440929 0.440923 0.440923 0.440932 0.440948 0.440976 0.441012 0.441061 0.441118 0.441184 0.441251 0.441316 0.441367 0.441397 0.440748 0.440728 0.440692 0.440647 0.440597 0.440549 0.440505 0.44047 0.440443 0.440427 0.440418 0.44042 0.44043 0.440452 0.440482 0.44053 0.440595 0.440689 0.440818 0.441004 0.441262 0.44163 0.442142 0.442862 0.443856 0.445236 0.44713 0.449728 0.453268 0.458085 0.464606 0.473421 0.48529 0.501234 0.522557 0.550945 0.588455 0.637507 0.700617 0.779923 0.876209 0.987734 1.10918 1.23186 1.34571 1.44246 1.51812 1.5732 1.61113 1.63632 1.65269 1.66331 1.67026 1.67496 1.67826 1.6807 1.68261 1.68419 1.68555 1.68676 1.68786 1.68889 1.68984 1.69075 1.69158 1.69238 1.69311 1.69381 1.69445 1.69506 1.69562 1.69615 1.69662 1.69708 1.69748 1.69786 1.6982 1.69852 1.6988 1.69907 1.6993 1.69952 1.69971 1.69989 1.70003 1.70018 1.7003 1.70041 1.7005 1.70059 1.70066 1.70073 1.70078 1.70083 1.70086 1.7009 1.70092 1.70094 1.70094 1.70095 1.70094 1.70094 1.70092 1.7009 1.70087 1.70084 1.70078 1.70074 1.70067 1.7006 1.70051 1.70042 1.7003 1.70018 1.70004 1.69989 1.6997 1.69951 1.69929 1.69906 1.69878 1.6985 1.69817 1.69783 1.69744 1.69703 1.69657 1.69609 1.69555 1.69499 1.69437 1.69372 1.69301 1.69227 1.69147 1.69062 1.68971 1.68875 1.68771 1.6866 1.68537 1.68401 1.68241 1.68049 1.67802 1.67469 1.66993 1.66289 1.65214 1.63556 1.61008 1.57173 1.51612 1.43989 1.3426 1.22841 1.10565 0.984391 0.873242 0.777418 0.698576 0.635882 0.587179 0.549952 0.521789 0.500645 0.484843 0.473089 0.464367 0.457925 0.453176 0.449696 0.447151 0.445305 0.443969 0.443015 0.442333 0.441855 0.441518 0.441287 0.441126 0.441018 0.440943 0.440893 0.440857 0.440834 0.440817 0.440808 0.440804 0.440808 0.440817 0.440836 0.440861 0.440896 0.440937 0.440983 0.44103 0.441074 0.441108 0.441127 0.44048 0.440469 0.440447 0.440419 0.440387 0.440356 0.440328 0.440307 0.440291 0.440283 0.440282 0.440289 0.440303 0.440328 0.44036 0.440409 0.440473 0.440566 0.440692 0.440874 0.441126 0.441485 0.441984 0.442684 0.443651 0.444993 0.446832 0.449356 0.452791 0.457465 0.463789 0.472335 0.483837 0.499284 0.519938 0.547439 0.583789 0.631366 0.69268 0.769939 0.864134 0.973887 1.09434 1.21721 1.33245 1.43149 1.50973 1.56721 1.60707 1.63365 1.65098 1.66222 1.66957 1.67451 1.67795 1.68048 1.68244 1.68405 1.68543 1.68666 1.68776 1.6888 1.68975 1.69065 1.69149 1.69229 1.69303 1.69373 1.69438 1.69499 1.69555 1.69608 1.69657 1.69702 1.69743 1.69782 1.69817 1.69849 1.69878 1.69905 1.69929 1.69952 1.69971 1.69989 1.70005 1.7002 1.70032 1.70044 1.70053 1.70063 1.7007 1.70077 1.70082 1.70088 1.70091 1.70095 1.70097 1.70099 1.701 1.70101 1.701 1.701 1.70097 1.70096 1.70092 1.70089 1.70083 1.70078 1.70071 1.70064 1.70054 1.70044 1.70032 1.7002 1.70005 1.69989 1.6997 1.69951 1.69928 1.69904 1.69876 1.69847 1.69814 1.69779 1.69739 1.69698 1.69651 1.69602 1.69548 1.69492 1.69429 1.69364 1.69293 1.69218 1.69137 1.69053 1.68961 1.68865 1.68761 1.68649 1.68526 1.68387 1.68224 1.68027 1.67771 1.67423 1.66923 1.66179 1.65041 1.63286 1.60597 1.56567 1.50766 1.42883 1.32928 1.21372 1.09082 0.970578 0.861219 0.767492 0.690694 0.629791 0.582556 0.546482 0.519202 0.498721 0.483413 0.472024 0.46357 0.457323 0.452716 0.449339 0.446868 0.445075 0.443777 0.442849 0.442185 0.44172 0.441391 0.441166 0.441008 0.440902 0.440827 0.440777 0.440739 0.440715 0.440695 0.440683 0.440674 0.440672 0.440673 0.440683 0.440696 0.440718 0.440742 0.440772 0.4408 0.440827 0.440846 0.440857 0.440216 0.440212 0.440202 0.440188 0.440172 0.440157 0.440143 0.440135 0.440129 0.440131 0.440137 0.440151 0.440169 0.440197 0.440231 0.440281 0.440345 0.440437 0.440561 0.440738 0.440983 0.441331 0.441814 0.442492 0.443428 0.444725 0.446503 0.448941 0.452259 0.45677 0.462872 0.471114 0.482202 0.497089 0.516992 0.543492 0.578533 0.624442 0.68371 0.758615 0.850361 0.957973 1.07713 1.19999 1.31668 1.41826 1.49951 1.55983 1.60201 1.63031 1.64882 1.66083 1.66868 1.67393 1.67756 1.6802 1.68223 1.68389 1.68528 1.68653 1.68764 1.68868 1.68964 1.69055 1.69139 1.69219 1.69294 1.69365 1.6943 1.69492 1.69548 1.69602 1.69651 1.69697 1.69739 1.69779 1.69814 1.69847 1.69876 1.69905 1.69929 1.69952 1.69972 1.69991 1.70007 1.70023 1.70035 1.70048 1.70058 1.70068 1.70075 1.70083 1.70088 1.70094 1.70098 1.70102 1.70104 1.70107 1.70107 1.70108 1.70107 1.70107 1.70104 1.70102 1.70098 1.70095 1.70089 1.70084 1.70076 1.70068 1.70058 1.70048 1.70036 1.70023 1.70007 1.69991 1.69971 1.69951 1.69928 1.69903 1.69874 1.69845 1.69811 1.69775 1.69735 1.69693 1.69646 1.69596 1.69542 1.69484 1.69421 1.69355 1.69284 1.69209 1.69128 1.69042 1.68951 1.68854 1.68749 1.68636 1.68511 1.6837 1.68203 1.67998 1.67731 1.67363 1.66832 1.66038 1.64821 1.62948 1.60084 1.55821 1.49734 1.41551 1.31344 1.19648 1.07361 0.954708 0.847508 0.756234 0.681787 0.622921 0.577347 0.542574 0.516288 0.496555 0.481803 0.470824 0.462672 0.456646 0.4522 0.44894 0.446553 0.444822 0.443566 0.442669 0.442026 0.441576 0.441257 0.441038 0.440884 0.44078 0.440705 0.440655 0.440616 0.440589 0.440566 0.44055 0.440536 0.440527 0.440521 0.440521 0.440523 0.440531 0.440541 0.440555 0.440568 0.440579 0.440587 0.44059 0.43996 0.439961 0.439961 0.439959 0.439957 0.439955 0.439955 0.439958 0.439963 0.439974 0.439987 0.440007 0.440029 0.440061 0.440098 0.440149 0.440213 0.440304 0.440425 0.440597 0.440834 0.44117 0.441635 0.442289 0.443189 0.444437 0.446147 0.448491 0.451678 0.45601 0.461867 0.469776 0.480411 0.494685 0.513763 0.539167 0.572772 0.616841 0.673841 0.746108 0.835062 0.940148 1.05763 1.18025 1.29833 1.40265 1.48727 1.55088 1.59582 1.62619 1.64613 1.6591 1.66756 1.67319 1.67706 1.67986 1.68197 1.68368 1.68511 1.68638 1.68751 1.68856 1.68952 1.69044 1.69129 1.69209 1.69284 1.69356 1.69422 1.69484 1.69542 1.69596 1.69646 1.69693 1.69735 1.69776 1.69811 1.69846 1.69876 1.69904 1.69929 1.69953 1.69974 1.69994 1.7001 1.70027 1.7004 1.70053 1.70063 1.70074 1.70082 1.7009 1.70096 1.70102 1.70106 1.7011 1.70112 1.70115 1.70115 1.70117 1.70116 1.70115 1.70113 1.70111 1.70106 1.70102 1.70096 1.70091 1.70082 1.70075 1.70064 1.70054 1.7004 1.70027 1.7001 1.69994 1.69973 1.69953 1.69928 1.69903 1.69874 1.69843 1.69808 1.69772 1.69731 1.69688 1.6964 1.6959 1.69535 1.69476 1.69413 1.69346 1.69274 1.69199 1.69117 1.69031 1.68939 1.68841 1.68736 1.68621 1.68494 1.68349 1.68177 1.67963 1.6768 1.67289 1.66719 1.65862 1.64549 1.62529 1.59458 1.54917 1.48499 1.3998 1.29502 1.17671 1.05414 0.936939 0.832282 0.743803 0.671988 0.615381 0.571635 0.538291 0.513093 0.494179 0.480036 0.469507 0.461687 0.455904 0.451636 0.448505 0.446212 0.444547 0.443341 0.442478 0.441859 0.441425 0.441117 0.440906 0.440756 0.440655 0.44058 0.44053 0.440489 0.44046 0.440433 0.440413 0.440393 0.440378 0.440364 0.440354 0.440346 0.440342 0.440339 0.440338 0.440337 0.440337 0.440335 0.440333 0.439714 0.43972 0.439727 0.439736 0.439745 0.439755 0.439766 0.43978 0.439795 0.439814 0.439834 0.43986 0.439888 0.439923 0.439963 0.440015 0.44008 0.440169 0.440286 0.440453 0.440681 0.441004 0.44145 0.442076 0.442938 0.444133 0.445768 0.44801 0.451056 0.455196 0.46079 0.46834 0.478489 0.492106 0.510302 0.534531 0.566593 0.60868 0.66322 0.732594 0.818429 0.920599 1.03601 1.15805 1.27737 1.38451 1.47283 1.54019 1.58834 1.62115 1.64283 1.65696 1.66617 1.67228 1.67644 1.67942 1.68165 1.68343 1.68491 1.6862 1.68735 1.68842 1.68939 1.69031 1.69117 1.69199 1.69274 1.69346 1.69413 1.69477 1.69535 1.6959 1.69641 1.69688 1.69732 1.69773 1.6981 1.69845 1.69876 1.69905 1.69931 1.69956 1.69977 1.69998 1.70015 1.70032 1.70046 1.70059 1.7007 1.70081 1.7009 1.70098 1.70104 1.70111 1.70115 1.7012 1.70122 1.70125 1.70125 1.70126 1.70125 1.70125 1.70122 1.7012 1.70115 1.70111 1.70105 1.70099 1.7009 1.70082 1.70071 1.7006 1.70046 1.70032 1.70015 1.69997 1.69976 1.69955 1.6993 1.69903 1.69873 1.69842 1.69806 1.69769 1.69727 1.69683 1.69635 1.69584 1.69528 1.69469 1.69405 1.69337 1.69264 1.69188 1.69105 1.69019 1.68926 1.68827 1.6872 1.68604 1.68473 1.68324 1.68145 1.67919 1.67618 1.67196 1.66578 1.65645 1.64214 1.6202 1.587 1.53836 1.47044 1.38155 1.27399 1.15449 1.03255 0.917457 0.815731 0.730372 0.661441 0.607282 0.565508 0.533697 0.509667 0.491629 0.478139 0.468093 0.460628 0.455107 0.45103 0.448039 0.445847 0.444256 0.443102 0.442277 0.441685 0.441269 0.440974 0.440771 0.440626 0.440527 0.440454 0.440402 0.44036 0.440328 0.440298 0.440273 0.440248 0.440226 0.440204 0.440186 0.440168 0.440152 0.440138 0.440125 0.440113 0.440102 0.440092 0.440085 0.43948 0.439489 0.439504 0.439521 0.439539 0.43956 0.439581 0.439604 0.439628 0.439655 0.439682 0.439713 0.439746 0.439785 0.439827 0.439881 0.439945 0.440033 0.440147 0.440308 0.440526 0.440835 0.44126 0.441857 0.442678 0.443816 0.445372 0.447504 0.450402 0.454338 0.459654 0.466827 0.476464 0.489389 0.506657 0.529649 0.560085 0.600076 0.651996 0.718256 0.80067 0.899538 1.01243 1.13346 1.25376 1.36373 1.45601 1.52754 1.57937 1.61507 1.63881 1.65434 1.66446 1.67115 1.67569 1.67889 1.68127 1.68314 1.68467 1.686 1.68717 1.68825 1.68924 1.69018 1.69104 1.69187 1.69263 1.69337 1.69404 1.69468 1.69528 1.69584 1.69635 1.69684 1.69728 1.6977 1.69808 1.69844 1.69876 1.69906 1.69933 1.69959 1.69981 1.70002 1.7002 1.70038 1.70052 1.70067 1.70078 1.7009 1.70098 1.70107 1.70114 1.70121 1.70125 1.7013 1.70132 1.70135 1.70136 1.70137 1.70136 1.70136 1.70133 1.7013 1.70126 1.70121 1.70115 1.70108 1.70099 1.7009 1.70079 1.70067 1.70052 1.70038 1.7002 1.70002 1.6998 1.69958 1.69932 1.69905 1.69874 1.69841 1.69805 1.69767 1.69724 1.69679 1.6963 1.69577 1.6952 1.69461 1.69395 1.69327 1.69253 1.69176 1.69093 1.69005 1.68911 1.68811 1.68702 1.68583 1.68449 1.68294 1.68106 1.67866 1.67541 1.67082 1.66405 1.65379 1.63807 1.61403 1.57793 1.52559 1.45348 1.36066 1.25032 1.1299 1.00901 0.896475 0.798064 0.716123 0.650295 0.598744 0.559054 0.528859 0.506057 0.488941 0.476138 0.466601 0.459511 0.454266 0.450392 0.447548 0.445464 0.443952 0.442854 0.442069 0.441506 0.44111 0.440828 0.440634 0.440495 0.440399 0.440327 0.440275 0.440232 0.440197 0.440163 0.440134 0.440103 0.440075 0.440046 0.440019 0.439992 0.439967 0.439942 0.439919 0.439897 0.439877 0.439861 0.439851 0.43926 0.439272 0.439291 0.439316 0.439342 0.439371 0.439401 0.439432 0.439464 0.439498 0.439532 0.439568 0.439605 0.439648 0.439692 0.439748 0.439812 0.439898 0.440008 0.440162 0.440371 0.440664 0.441068 0.441633 0.442411 0.443489 0.444962 0.446981 0.449723 0.453447 0.458474 0.465255 0.474361 0.486571 0.502878 0.52459 0.553338 0.591145 0.64032 0.703282 0.782006 0.877197 0.987099 1.10664 1.22753 1.34018 1.43659 1.51269 1.5687 1.60774 1.63393 1.65114 1.66237 1.66977 1.67476 1.67825 1.6808 1.68278 1.68438 1.68576 1.68697 1.68807 1.68908 1.69002 1.6909 1.69174 1.69252 1.69326 1.69394 1.6946 1.6952 1.69577 1.6963 1.6968 1.69725 1.69768 1.69807 1.69844 1.69877 1.69908 1.69936 1.69962 1.69985 1.70007 1.70026 1.70044 1.7006 1.70075 1.70087 1.70099 1.70108 1.70118 1.70125 1.70132 1.70136 1.70141 1.70144 1.70147 1.70148 1.70149 1.70148 1.70147 1.70144 1.70142 1.70137 1.70132 1.70125 1.70118 1.70109 1.70099 1.70087 1.70075 1.7006 1.70044 1.70026 1.70007 1.69984 1.69961 1.69934 1.69906 1.69874 1.69841 1.69804 1.69764 1.69721 1.69675 1.69624 1.69571 1.69513 1.69452 1.69386 1.69316 1.69241 1.69163 1.69078 1.6899 1.68894 1.68792 1.68681 1.68559 1.6842 1.68258 1.68058 1.678 1.67447 1.66942 1.66192 1.65055 1.63312 1.60662 1.56715 1.5106 1.43392 1.337 1.22402 1.10308 0.983742 0.874224 0.7795 0.701243 0.638702 0.58988 0.552361 0.523842 0.502313 0.486152 0.47406 0.46505 0.45835 0.453391 0.449728 0.447039 0.445068 0.443637 0.442599 0.441857 0.441324 0.440949 0.440682 0.440498 0.440365 0.440272 0.440201 0.440149 0.440104 0.440067 0.44003 0.439996 0.43996 0.439926 0.43989 0.439856 0.439821 0.439787 0.439753 0.439722 0.439692 0.439665 0.439643 0.43963 0.439054 0.439068 0.439092 0.439122 0.439155 0.439191 0.439228 0.439267 0.439305 0.439346 0.439385 0.439427 0.439468 0.439513 0.439561 0.439617 0.439681 0.439765 0.439872 0.440019 0.440216 0.440494 0.440875 0.441408 0.442141 0.443156 0.444544 0.446446 0.449028 0.452534 0.457265 0.463645 0.472209 0.483687 0.499013 0.519416 0.546437 0.582002 0.628342 0.68786 0.762664 0.853827 0.96026 1.07774 1.19872 1.31379 1.41437 1.49539 1.55607 1.59896 1.62803 1.64724 1.65981 1.66809 1.67362 1.67746 1.68024 1.68236 1.68405 1.68548 1.68673 1.68786 1.68889 1.68985 1.69075 1.6916 1.69239 1.69314 1.69384 1.6945 1.69512 1.6957 1.69624 1.69675 1.69721 1.69766 1.69806 1.69844 1.69877 1.6991 1.69938 1.69966 1.6999 1.70013 1.70032 1.70051 1.70067 1.70083 1.70096 1.70108 1.70118 1.70128 1.70136 1.70143 1.70148 1.70153 1.70156 1.70159 1.7016 1.70162 1.7016 1.7016 1.70157 1.70154 1.70149 1.70144 1.70136 1.70129 1.70119 1.70109 1.70096 1.70083 1.70068 1.70051 1.70032 1.70012 1.69989 1.69965 1.69937 1.69908 1.69875 1.69841 1.69802 1.69762 1.69717 1.6967 1.69618 1.69564 1.69505 1.69442 1.69375 1.69304 1.69228 1.69149 1.69063 1.68972 1.68875 1.68771 1.68657 1.68531 1.68386 1.68215 1.68001 1.67721 1.67332 1.66771 1.65933 1.6466 1.62714 1.59773 1.55438 1.49315 1.41156 1.31051 1.19518 1.07421 0.956977 0.850956 0.760265 0.68592 0.626807 0.580806 0.545515 0.518712 0.498482 0.483296 0.47193 0.463459 0.457158 0.452494 0.449047 0.446517 0.444662 0.443316 0.44234 0.441642 0.44114 0.440788 0.440537 0.440362 0.440236 0.440147 0.440078 0.440026 0.439979 0.43994 0.439899 0.439862 0.439821 0.439781 0.439739 0.439698 0.439656 0.439615 0.439574 0.439535 0.439498 0.439466 0.43944 0.439425 0.438862 0.438879 0.438905 0.43894 0.438979 0.439021 0.439064 0.439109 0.439153 0.439199 0.439244 0.43929 0.439335 0.439383 0.439433 0.43949 0.439554 0.439636 0.439738 0.439878 0.440064 0.440325 0.440683 0.441183 0.44187 0.442821 0.444122 0.445904 0.448324 0.451608 0.45604 0.462014 0.47003 0.48077 0.495106 0.514188 0.539464 0.572757 0.616204 0.672175 0.74287 0.829691 0.932181 1.04701 1.16747 1.28451 1.38917 1.47536 1.54119 1.58848 1.6209 1.64251 1.65669 1.66602 1.67224 1.67651 1.67956 1.68185 1.68365 1.68516 1.68646 1.68762 1.68868 1.68966 1.69057 1.69144 1.69224 1.69301 1.69372 1.6944 1.69503 1.69563 1.69618 1.6967 1.69718 1.69763 1.69804 1.69843 1.69878 1.69912 1.69941 1.6997 1.69995 1.70018 1.70039 1.70059 1.70076 1.70092 1.70106 1.70119 1.70129 1.7014 1.70147 1.70155 1.70161 1.70166 1.70169 1.70173 1.70174 1.70175 1.70174 1.70173 1.7017 1.70166 1.70161 1.70156 1.70148 1.7014 1.7013 1.70119 1.70106 1.70092 1.70076 1.70059 1.70039 1.70018 1.69994 1.69968 1.6994 1.6991 1.69876 1.6984 1.69801 1.69759 1.69713 1.69665 1.69612 1.69556 1.69496 1.69432 1.69363 1.69291 1.69214 1.69133 1.69045 1.68953 1.68854 1.68747 1.6863 1.68499 1.68347 1.68164 1.67932 1.67624 1.67192 1.66562 1.65617 1.64181 1.61993 1.58713 1.53936 1.47296 1.38622 1.28113 1.1639 1.04351 0.928988 0.826932 0.740584 0.670336 0.614755 0.571629 0.538596 0.513527 0.494609 0.480406 0.469774 0.461847 0.45595 0.451583 0.448356 0.445987 0.444251 0.442992 0.442079 0.441426 0.440958 0.440629 0.440394 0.44023 0.44011 0.440025 0.439958 0.439906 0.439859 0.439817 0.439773 0.439732 0.439687 0.439642 0.439595 0.439548 0.439499 0.439452 0.439405 0.43936 0.439318 0.439281 0.439252 0.439235 0.438686 0.438704 0.438733 0.438771 0.438814 0.438861 0.438909 0.43896 0.439009 0.43906 0.439109 0.439159 0.439208 0.439259 0.43931 0.439368 0.439431 0.439511 0.439609 0.439741 0.439916 0.44016 0.440493 0.44096 0.4416 0.442487 0.4437 0.445362 0.447618 0.45068 0.454812 0.46038 0.467848 0.477851 0.491199 0.508962 0.532495 0.563508 0.604041 0.656402 0.722849 0.805057 0.903156 1.0147 1.13393 1.25237 1.36084 1.45232 1.52374 1.57599 1.61232 1.63676 1.65288 1.6635 1.67055 1.67535 1.67873 1.68124 1.68319 1.68478 1.68614 1.68735 1.68844 1.68945 1.69038 1.69126 1.69208 1.69286 1.69359 1.69428 1.69493 1.69554 1.6961 1.69664 1.69713 1.6976 1.69802 1.69842 1.69879 1.69913 1.69944 1.69973 1.69999 1.70024 1.70046 1.70066 1.70084 1.70101 1.70115 1.70129 1.7014 1.70151 1.70159 1.70167 1.70173 1.70179 1.70182 1.70186 1.70187 1.70188 1.70187 1.70186 1.70182 1.70179 1.70173 1.70168 1.7016 1.70151 1.7014 1.70129 1.70115 1.70101 1.70084 1.70066 1.70045 1.70023 1.69998 1.69972 1.69942 1.69911 1.69876 1.69839 1.69798 1.69756 1.69708 1.69659 1.69604 1.69547 1.69485 1.6942 1.6935 1.69277 1.69198 1.69115 1.69026 1.68931 1.6883 1.6872 1.68598 1.68461 1.683 1.68103 1.67849 1.67507 1.67021 1.66307 1.65231 1.63598 1.61124 1.5745 1.52175 1.44976 1.35775 1.24891 1.13035 1.01126 0.900068 0.802419 0.720681 0.654667 0.602677 0.562449 0.53168 0.508343 0.490735 0.477514 0.467614 0.460231 0.454737 0.450669 0.447663 0.445457 0.44384 0.442669 0.441819 0.441213 0.440778 0.440472 0.440254 0.440101 0.439989 0.439908 0.439843 0.439791 0.439743 0.439699 0.439653 0.439608 0.439559 0.43951 0.439458 0.439406 0.439352 0.439299 0.439247 0.439197 0.439151 0.439111 0.439079 0.43906 0.438525 0.438544 0.438575 0.438616 0.438662 0.438713 0.438766 0.43882 0.438874 0.438929 0.438982 0.439036 0.439087 0.439141 0.439193 0.439252 0.439315 0.439392 0.439485 0.439609 0.439772 0.439999 0.440309 0.440741 0.441335 0.442157 0.443282 0.444824 0.446917 0.449759 0.453593 0.458758 0.465685 0.474959 0.487329 0.50379 0.525596 0.554349 0.591976 0.640706 0.702815 0.780194 0.873495 0.981124 1.09835 1.21744 1.32928 1.42603 1.50339 1.56115 1.60198 1.62976 1.64822 1.6604 1.66847 1.67394 1.67774 1.68052 1.68263 1.68434 1.68578 1.68704 1.68816 1.6892 1.69016 1.69106 1.6919 1.6927 1.69345 1.69415 1.69481 1.69544 1.69602 1.69657 1.69707 1.69755 1.69799 1.69841 1.69878 1.69914 1.69946 1.69977 1.70004 1.70029 1.70052 1.70073 1.70092 1.7011 1.70125 1.70139 1.70151 1.70162 1.70171 1.7018 1.70186 1.70192 1.70195 1.70199 1.702 1.70201 1.702 1.70199 1.70196 1.70192 1.70186 1.7018 1.70171 1.70163 1.70151 1.70139 1.70125 1.7011 1.70092 1.70073 1.70052 1.70029 1.70003 1.69975 1.69944 1.69912 1.69876 1.69838 1.69796 1.69751 1.69703 1.69652 1.69596 1.69537 1.69474 1.69407 1.69336 1.69261 1.6918 1.69095 1.69004 1.68907 1.68802 1.68688 1.68561 1.68417 1.68244 1.6803 1.67749 1.67364 1.66811 1.65993 1.64759 1.6289 1.60079 1.55952 1.50122 1.42329 1.32605 1.21392 1.09478 0.977771 0.870527 0.777687 0.700769 0.639075 0.590697 0.553357 0.524833 0.503211 0.486898 0.474647 0.465471 0.458627 0.453533 0.449761 0.446974 0.44493 0.443433 0.442349 0.441563 0.441004 0.440602 0.44032 0.440118 0.439977 0.439872 0.439796 0.439733 0.439682 0.439633 0.439587 0.439539 0.439491 0.439439 0.439386 0.439329 0.439273 0.439215 0.439157 0.439101 0.439047 0.438998 0.438955 0.438922 0.438902 0.43838 0.438399 0.438432 0.438475 0.438523 0.438577 0.438633 0.438691 0.438749 0.438807 0.438863 0.43892 0.438974 0.439029 0.439084 0.439142 0.439204 0.439279 0.439367 0.439483 0.439635 0.439845 0.44013 0.440529 0.441076 0.441834 0.442872 0.444295 0.446228 0.448853 0.452393 0.457163 0.463558 0.472118 0.483531 0.498715 0.518829 0.545362 0.58012 0.625236 0.682969 0.755365 0.843518 0.946634 1.06103 1.17991 1.29444 1.39624 1.47978 1.5436 1.58956 1.62126 1.64252 1.6566 1.66592 1.6722 1.67653 1.67964 1.68198 1.68383 1.68535 1.68668 1.68785 1.68893 1.68991 1.69084 1.6917 1.69252 1.69328 1.69401 1.69468 1.69533 1.69592 1.69649 1.69701 1.6975 1.69795 1.69838 1.69877 1.69914 1.69948 1.69979 1.70007 1.70034 1.70058 1.7008 1.701 1.70118 1.70134 1.70149 1.70161 1.70173 1.70182 1.70191 1.70198 1.70204 1.70208 1.70212 1.70213 1.70214 1.70213 1.70212 1.70208 1.70204 1.70198 1.70192 1.70183 1.70173 1.70162 1.70149 1.70134 1.70118 1.70099 1.7008 1.70057 1.70033 1.70006 1.69978 1.69946 1.69912 1.69875 1.69835 1.69792 1.69746 1.69696 1.69643 1.69586 1.69526 1.69461 1.69393 1.69319 1.69242 1.6916 1.69072 1.68979 1.68879 1.68771 1.68653 1.68519 1.68364 1.68177 1.67941 1.67626 1.67188 1.66553 1.65608 1.64182 1.6203 1.58823 1.54179 1.47742 1.39333 1.2911 1.17634 1.0575 0.943384 0.840682 0.752994 0.681046 0.623708 0.578924 0.544434 0.518117 0.498175 0.48313 0.471829 0.463363 0.457048 0.452347 0.448867 0.446296 0.444411 0.443033 0.442035 0.441313 0.4408 0.440432 0.440174 0.439989 0.439859 0.439762 0.43969 0.43963 0.439579 0.43953 0.439483 0.439432 0.439381 0.439326 0.43927 0.43921 0.43915 0.439088 0.439027 0.438967 0.438911 0.438859 0.438814 0.43878 0.43876 0.43825 0.438269 0.438303 0.438347 0.438398 0.438454 0.438512 0.438573 0.438633 0.438695 0.