# vtk DataFile Version 3.0
Immiscible displacement
ASCII
DATASET RECTILINEAR_GRID
DIMENSIONS 200 200 1
X_COORDINATES 200 double
1 2 3 4 5 6 7 8 9 10 11 12 13 14 15 16 17 18 19 20 21 22 23 24 25 26 27 28 29 30 31 32 33 34 35 36 37 38 39 40 41 42 43 44 45 46 47 48 49 50 51 52 53 54 55 56 57 58 59 60 61 62 63 64 65 66 67 68 69 70 71 72 73 74 75 76 77 78 79 80 81 82 83 84 85 86 87 88 89 90 91 92 93 94 95 96 97 98 99 100 101 102 103 104 105 106 107 108 109 110 111 112 113 114 115 116 117 118 119 120 121 122 123 124 125 126 127 128 129 130 131 132 133 134 135 136 137 138 139 140 141 142 143 144 145 146 147 148 149 150 151 152 153 154 155 156 157 158 159 160 161 162 163 164 165 166 167 168 169 170 171 172 173 174 175 176 177 178 179 180 181 182 183 184 185 186 187 188 189 190 191 192 193 194 195 196 197 198 199 200 
Y_COORDINATES 200 double
1 2 3 4 5 6 7 8 9 10 11 12 13 14 15 16 17 18 19 20 21 22 23 24 25 26 27 28 29 30 31 32 33 34 35 36 37 38 39 40 41 42 43 44 45 46 47 48 49 50 51 52 53 54 55 56 57 58 59 60 61 62 63 64 65 66 67 68 69 70 71 72 73 74 75 76 77 78 79 80 81 82 83 84 85 86 87 88 89 90 91 92 93 94 95 96 97 98 99 100 101 102 103 104 105 106 107 108 109 110 111 112 113 114 115 116 117 118 119 120 121 122 123 124 125 126 127 128 129 130 131 132 133 134 135 136 137 138 139 140 141 142 143 144 145 146 147 148 149 150 151 152 153 154 155 156 157 158 159 160 161 162 163 164 165 166 167 168 169 170 171 172 173 174 175 176 177 178 179 180 181 182 183 184 185 186 187 188 189 190 191 192 193 194 195 196 197 198 199 200 
Z_COORDINATES 1 double
0
POINT_DATA 40000
SCALARS rho double 1
LOOKUP_TABLE default
0.456346 0.456237 0.456045 0.455772 0.455414 0.454964 0.45442 0.453783 0.453054 0.452242 0.451354 0.450404 0.449403 0.44837 0.447319 0.446273 0.44525 0.44428 0.443387 0.442609 0.441982 0.441563 0.441408 0.441606 0.442253 0.443493 0.445499 0.448514 0.452847 0.458922 0.467283 0.478669 0.494031 0.514624 0.542028 0.578218 0.625489 0.686297 0.762761 0.855855 0.964206 1.08311 1.20444 1.3184 1.41647 1.49403 1.55092 1.59016 1.61595 1.6323 1.64236 1.64839 1.65186 1.65376 1.65468 1.65501 1.65496 1.65469 1.65428 1.6538 1.65326 1.6527 1.65213 1.65156 1.65098 1.65042 1.64986 1.64932 1.64879 1.64828 1.64777 1.6473 1.64682 1.64638 1.64593 1.64552 1.6451 1.64471 1.64432 1.64395 1.64357 1.64322 1.64285 1.64251 1.64215 1.64181 1.64146 1.64113 1.6408 1.64049 1.64018 1.63989 1.63962 1.63938 1.63916 1.63898 1.63883 1.63873 1.63866 1.63864 1.63866 1.63873 1.63883 1.63898 1.63916 1.63938 1.63962 1.63989 1.64018 1.64049 1.6408 1.64114 1.64146 1.64181 1.64215 1.6425 1.64285 1.64322 1.64357 1.64395 1.64432 1.64471 1.6451 1.64552 1.64593 1.64637 1.64682 1.64729 1.64777 1.64827 1.64878 1.64932 1.64986 1.65042 1.65098 1.65156 1.65213 1.65271 1.65326 1.65381 1.65429 1.6547 1.65497 1.65502 1.6547 1.65379 1.65189 1.64842 1.6424 1.63235 1.616 1.59022 1.55098 1.49408 1.41651 1.31841 1.2044 1.08301 0.964046 0.85563 0.762473 0.685946 0.625076 0.577741 0.541485 0.514011 0.493345 0.477907 0.466442 0.458001 0.451847 0.447434 0.444342 0.442262 0.440953 0.440243 0.43999 0.440098 0.44048 0.441079 0.441842 0.442733 0.443713 0.444759 0.445841 0.446942 0.448037 0.449111 0.450145 0.451126 0.452037 0.452868 0.453608 0.454253 0.454795 0.455237 0.455581 0.455834 0.456004 0.456096 0.456253 0.456157 0.455972 0.455704 0.455347 0.4549 0.454357 0.453724 0.452999 0.452194 0.451312 0.450371 0.449378 0.448354 0.447311 0.446276 0.445261 0.4443 0.443413 0.442643 0.44202 0.441605 0.441451 0.441649 0.442291 0.443525 0.445518 0.448517 0.452823 0.458864 0.467175 0.478497 0.493768 0.514242 0.541485 0.577469 0.62447 0.684952 0.761034 0.853734 0.961734 1.08042 1.20174 1.31593 1.41439 1.49242 1.54975 1.58935 1.6154 1.63194 1.64212 1.64822 1.65174 1.65367 1.6546 1.65494 1.65489 1.65463 1.65422 1.65374 1.6532 1.65265 1.65207 1.6515 1.65092 1.65036 1.6498 1.64927 1.64872 1.64822 1.64771 1.64724 1.64676 1.64632 1.64587 1.64546 1.64504 1.64466 1.64426 1.6439 1.64352 1.64318 1.64281 1.64248 1.64212 1.6418 1.64146 1.64114 1.64082 1.64052 1.64022 1.63995 1.63969 1.63947 1.63925 1.63909 1.63894 1.63885 1.63877 1.63876 1.63877 1.63885 1.63894 1.63909 1.63925 1.63947 1.63969 1.63995 1.64022 1.64052 1.64082 1.64114 1.64146 1.6418 1.64212 1.64248 1.64281 1.64317 1.64352 1.6439 1.64426 1.64466 1.64504 1.64546 1.64587 1.64632 1.64676 1.64724 1.64771 1.64822 1.64872 1.64926 1.64979 1.65036 1.65092 1.6515 1.65207 1.65265 1.6532 1.65375 1.65423 1.65464 1.6549 1.65496 1.65462 1.65369 1.65176 1.64826 1.64216 1.63199 1.61546 1.58941 1.54981 1.49247 1.41442 1.31593 1.20169 1.08031 0.961561 0.853497 0.760734 0.68459 0.624047 0.576982 0.540934 0.513621 0.493075 0.477728 0.466329 0.457939 0.451819 0.447434 0.444359 0.442293 0.440992 0.440288 0.440036 0.440144 0.440523 0.44112 0.441876 0.442761 0.443733 0.444772 0.445845 0.446938 0.448023 0.44909 0.450115 0.451089 0.451992 0.452819 0.453555 0.454197 0.454738 0.455181 0.455525 0.455778 0.455944 0.456029 0.456116 0.45603 0.455856 0.455595 0.455242 0.454799 0.454261 0.453634 0.452917 0.452121 0.45125 0.450321 0.449341 0.448333 0.447304 0.446282 0.445281 0.444333 0.443457 0.442696 0.442081 0.441671 0.441517 0.441711 0.442344 0.443562 0.445531 0.448495 0.452751 0.458722 0.466939 0.478132 0.493231 0.513474 0.540411 0.575994 0.622485 0.68234 0.7577 0.849643 0.956973 1.07524 1.19653 1.31113 1.41034 1.48927 1.54746 1.58776 1.61434 1.63124 1.64165 1.6479 1.65151 1.6535 1.65446 1.65482 1.65479 1.65454 1.65413 1.65365 1.65311 1.65256 1.65198 1.65141 1.65083 1.65027 1.6497 1.64917 1.64863 1.64812 1.64761 1.64714 1.64666 1.64621 1.64577 1.64536 1.64494 1.64455 1.64416 1.6438 1.64342 1.64308 1.64272 1.64239 1.64205 1.64173 1.6414 1.6411 1.64079 1.64051 1.64022 1.63997 1.63972 1.63952 1.63932 1.63916 1.63903 1.63894 1.63888 1.63887 1.63888 1.63894 1.63903 1.63917 1.63932 1.63952 1.63972 1.63997 1.64022 1.64051 1.64079 1.6411 1.6414 1.64173 1.64205 1.64239 1.64272 1.64308 1.64342 1.64379 1.64416 1.64455 1.64493 1.64535 1.64576 1.64621 1.64665 1.64713 1.64761 1.64812 1.64862 1.64917 1.6497 1.65027 1.65083 1.65141 1.65198 1.65256 1.65311 1.65366 1.65414 1.65455 1.6548 1.65484 1.65448 1.65352 1.65154 1.64794 1.64169 1.63128 1.61439 1.58782 1.54751 1.48932 1.41036 1.31111 1.19647 1.07511 0.95678 0.849385 0.75738 0.68196 0.622045 0.575492 0.539845 0.512839 0.492525 0.477352 0.466083 0.457788 0.451739 0.447406 0.444368 0.442329 0.441045 0.440352 0.440106 0.440216 0.440592 0.441184 0.441933 0.442809 0.443769 0.444796 0.445855 0.446934 0.448006 0.44906 0.450072 0.451034 0.451928 0.452747 0.453476 0.454115 0.454654 0.455096 0.455439 0.45569 0.455852 0.455931 0.455965 0.455886 0.455721 0.455468 0.455121 0.454684 0.454152 0.453532 0.452824 0.45204 0.451182 0.450268 0.449304 0.448312 0.4473 0.446295 0.445309 0.444376 0.443513 0.442762 0.442153 0.441746 0.441591 0.441777 0.442395 0.443588 0.445519 0.44843 0.452612 0.458483 0.466562 0.47757 0.49242 0.512331 0.538829 0.573838 0.619598 0.678556 0.752877 0.84373 0.950086 1.06773 1.18895 1.30412 1.40439 1.48462 1.54405 1.5854 1.61275 1.63019 1.64095 1.64744 1.65119 1.65327 1.65428 1.65468 1.65466 1.65442 1.65402 1.65355 1.653 1.65245 1.65187 1.6513 1.65071 1.65016 1.64959 1.64905 1.64851 1.648 1.64748 1.64701 1.64652 1.64608 1.64563 1.64521 1.64479 1.6444 1.64401 1.64365 1.64327 1.64293 1.64257 1.64225 1.64191 1.6416 1.64128 1.64099 1.64069 1.64042 1.64015 1.63991 1.63967 1.63948 1.63929 1.63915 1.63902 1.63894 1.63888 1.63887 1.63888 1.63894 1.63902 1.63915 1.63929 1.63948 1.63967 1.63991 1.64015 1.64042 1.64069 1.64099 1.64128 1.6416 1.64191 1.64225 1.64257 1.64293 1.64327 1.64365 1.64401 1.6444 1.64479 1.64521 1.64562 1.64608 1.64652 1.647 1.64748 1.648 1.6485 1.64905 1.64958 1.65016 1.65071 1.6513 1.65187 1.65246 1.65301 1.65355 1.65403 1.65443 1.65467 1.6547 1.6543 1.65329 1.65122 1.64747 1.64099 1.63023 1.61279 1.58545 1.5441 1.48465 1.4044 1.30408 1.18886 1.06757 0.949867 0.843447 0.752533 0.678154 0.619138 0.573317 0.538244 0.51168 0.491699 0.476775 0.465693 0.457537 0.451591 0.447334 0.444351 0.442351 0.441095 0.44042 0.440184 0.440298 0.440674 0.441262 0.442003 0.442868 0.443816 0.444829 0.445873 0.446937 0.447992 0.44903 0.450027 0.450977 0.451859 0.452669 0.453391 0.454025 0.454561 0.455002 0.455344 0.455593 0.455751 0.455825 0.45582 0.455746 0.455588 0.455341 0.455 0.454569 0.454044 0.453433 0.452734 0.451962 0.451117 0.450219 0.449271 0.448297 0.447302 0.446315 0.445345 0.444426 0.443575 0.442834 0.44223 0.441824 0.441663 0.441837 0.442432 0.443591 0.445472 0.448314 0.4524 0.45814 0.466044 0.476815 0.491347 0.510835 0.536773 0.571054 0.615883 0.673697 0.74669 0.836139 0.941227 1.05803 1.17912 1.29496 1.39658 1.47846 1.53953 1.58224 1.61062 1.62878 1.64003 1.64683 1.65077 1.65298 1.65407 1.65451 1.65452 1.65429 1.6539 1.65343 1.65289 1.65234 1.65176 1.65119 1.6506 1.65004 1.64946 1.64892 1.64837 1.64786 1.64734 1.64686 1.64637 1.64592 1.64546 1.64504 1.64462 1.64422 1.64382 1.64345 1.64308 1.64273 1.64237 1.64205 1.64171 1.6414 1.64108 1.64079 1.64049 1.64023 1.63996 1.63974 1.63951 1.63932 1.63914 1.63901 1.63888 1.63881 1.63875 1.63874 1.63875 1.63881 1.63888 1.63901 1.63914 1.63932 1.63951 1.63974 1.63997 1.64023 1.64049 1.64079 1.64108 1.6414 1.64171 1.64204 1.64237 1.64273 1.64307 1.64345 1.64382 1.64422 1.64461 1.64504 1.64546 1.64592 1.64637 1.64686 1.64734 1.64786 1.64837 1.64892 1.64946 1.65004 1.6506 1.65119 1.65176 1.65235 1.6529 1.65344 1.65391 1.65431 1.65453 1.65453 1.65409 1.653 1.6508 1.64686 1.64007 1.62883 1.61067 1.58229 1.53957 1.47849 1.39657 1.2949 1.179 1.05785 0.940979 0.835828 0.74632 0.67327 0.615399 0.57051 0.536168 0.510164 0.490608 0.476003 0.465159 0.457181 0.451367 0.447208 0.444297 0.442349 0.44113 0.44048 0.44026 0.440382 0.44076 0.441346 0.44208 0.442936 0.443872 0.44487 0.445899 0.446947 0.447986 0.449008 0.44999 0.450926 0.451796 0.452597 0.453312 0.453941 0.454475 0.454914 0.455254 0.455502 0.455657 0.45573 0.455694 0.455624 0.45547 0.455228 0.454892 0.454467 0.453948 0.453344 0.452655 0.451895 0.451064 0.45018 0.449248 0.44829 0.447312 0.446341 0.445387 0.444481 0.44364 0.442907 0.442306 0.441897 0.441727 0.441882 0.442449 0.443565 0.445385 0.448142 0.452113 0.457696 0.465389 0.475877 0.49003 0.509014 0.534286 0.567698 0.611419 0.667865 0.739264 0.827015 0.930543 1.04627 1.16712 1.28371 1.3869 1.47079 1.53385 1.57826 1.60793 1.62701 1.63887 1.64607 1.65027 1.65263 1.65382 1.65432 1.65436 1.65416 1.65378 1.65332 1.65278 1.65223 1.65164 1.65107 1.65048 1.64992 1.64934 1.64879 1.64824 1.64772 1.64719 1.64671 1.64621 1.64575 1.64528 1.64486 1.64442 1.64402 1.64361 1.64323 1.64284 1.64249 1.64212 1.64179 1.64144 1.64113 1.6408 1.64051 1.64021 1.63995 1.63968 1.63946 1.63923 1.63905 1.63887 1.63874 1.63861 1.63854 1.63848 1.63848 1.63848 1.63854 1.63861 1.63874 1.63887 1.63905 1.63923 1.63946 1.63968 1.63995 1.64021 1.64051 1.6408 1.64113 1.64144 1.64179 1.64212 1.64249 1.64284 1.64323 1.6436 1.64402 1.64442 1.64485 1.64528 1.64575 1.64621 1.6467 1.64719 1.64772 1.64824 1.64879 1.64934 1.64992 1.65048 1.65107 1.65165 1.65224 1.65279 1.65333 1.65379 1.65418 1.65438 1.65434 1.65384 1.65266 1.6503 1.6461 1.63891 1.62705 1.60798 1.5783 1.53388 1.4708 1.38687 1.28363 1.16698 1.04606 0.930265 0.826675 0.738868 0.667413 0.610911 0.567132 0.53366 0.508323 0.489272 0.475047 0.464487 0.456722 0.451067 0.447025 0.444201 0.442317 0.441143 0.440525 0.440327 0.440462 0.440845 0.441431 0.442161 0.443009 0.443934 0.444919 0.445934 0.446966 0.44799 0.448997 0.449965 0.450888 0.451747 0.452539 0.453248 0.453873 0.454403 0.454841 0.455182 0.455429 0.455584 0.455656 0.455598 0.455528 0.455376 0.455137 0.454805 0.454383 0.45387 0.453273 0.452593 0.451843 0.451024 0.450155 0.449237 0.448295 0.447332 0.446375 0.445434 0.44454 0.443707 0.442978 0.442378 0.441963 0.441779 0.441911 0.442442 0.443507 0.445255 0.447914 0.451751 0.457155 0.464606 0.47477 0.488492 0.5069 0.531413 0.563833 0.606287 0.661166 0.730729 0.816501 0.91818 1.03259 1.15305 1.27039 1.37534 1.46154 1.52696 1.57341 1.60465 1.62484 1.63746 1.64515 1.64966 1.65222 1.65353 1.65411 1.6542 1.65403 1.65366 1.65321 1.65267 1.65213 1.65154 1.65096 1.65037 1.6498 1.64922 1.64867 1.64811 1.64758 1.64705 1.64655 1.64604 1.64557 1.6451 1.64466 1.64421 1.64379 1.64337 1.64298 1.64258 1.64221 1.64183 1.64148 1.64112 1.6408 1.64046 1.64016 1.63985 1.63958 1.63931 1.63907 1.63884 1.63865 1.63847 1.63834 1.63821 1.63814 1.63808 1.63807 1.63808 1.63814 1.63821 1.63834 1.63847 1.63865 1.63884 1.63907 1.63931 1.63958 1.63985 1.64016 1.64046 1.6408 1.64112 1.64148 1.64183 1.64221 1.64258 1.64298 1.64337 1.64379 1.6442 1.64465 1.64509 1.64557 1.64604 1.64655 1.64704 1.64758 1.6481 1.64866 1.64922 1.6498 1.65037 1.65097 1.65154 1.65213 1.65268 1.65322 1.65367 1.65404 1.65422 1.65413 1.65356 1.65225 1.64969 1.64518 1.6375 1.62488 1.60469 1.57344 1.52698 1.46153 1.37529 1.27028 1.15288 1.03235 0.917873 0.816134 0.730306 0.660689 0.605756 0.563245 0.530765 0.506188 0.487713 0.473922 0.463687 0.456165 0.450691 0.446785 0.444062 0.442252 0.441132 0.440553 0.44038 0.440532 0.440925 0.441513 0.442241 0.443084 0.444 0.444975 0.445976 0.446995 0.448005 0.448999 0.449954 0.450866 0.451716 0.452499 0.453203 0.453824 0.454354 0.454792 0.455133 0.455381 0.455538 0.45561 0.455535 0.455465 0.455313 0.455074 0.454743 0.454324 0.453815 0.453224 0.452551 0.45181 0.451002 0.450144 0.44924 0.44831 0.44736 0.446416 0.445486 0.4446 0.443774 0.443047 0.442443 0.442018 0.441817 0.441921 0.44241 0.443416 0.445084 0.447632 0.45132 0.456524 0.463706 0.473512 0.486755 0.504528 0.5282 0.559523 0.600571 0.653706 0.72121 0.804741 0.904284 1.0171 1.13697 1.25502 1.36185 1.45065 1.51877 1.5676 1.6007 1.62223 1.63575 1.64404 1.64894 1.65174 1.65321 1.65388 1.65403 1.65389 1.65354 1.65311 1.65258 1.65203 1.65144 1.65087 1.65027 1.64969 1.6491 1.64855 1.64798 1.64745 1.6469 1.64639 1.64588 1.6454 1.64491 1.64445 1.64399 1.64356 1.64312 1.64271 1.64229 1.64191 1.64151 1.64114 1.64077 1.64042 1.64007 1.63975 1.63943 1.63914 1.63886 1.63861 1.63837 1.63817 1.63798 1.63784 1.63771 1.63763 1.63757 1.63756 1.63757 1.63763 1.63771 1.63784 1.63798 1.63817 1.63837 1.63861 1.63886 1.63914 1.63943 1.63975 1.64007 1.64042 1.64077 1.64114 1.64151 1.64191 1.64229 1.64271 1.64312 1.64356 1.64399 1.64445 1.6449 1.64539 1.64587 1.64639 1.6469 1.64744 1.64798 1.64855 1.6491 1.64969 1.65027 1.65087 1.65145 1.65204 1.65258 1.65311 1.65356 1.65391 1.65405 1.6539 1.65323 1.65177 1.64897 1.64408 1.63579 1.62227 1.60073 1.56763 1.51878 1.45063 1.36178 1.25489 1.13677 1.01683 0.90395 0.804348 0.720763 0.653206 0.600018 0.558913 0.527531 0.503795 0.485957 0.472645 0.46277 0.455517 0.450245 0.44649 0.443879 0.442153 0.441095 0.44056 0.440418 0.440591 0.440997 0.441591 0.44232 0.44316 0.44407 0.445036 0.446027 0.447035 0.448033 0.449015 0.44996 0.450862 0.451704 0.452481 0.45318 0.4538 0.454329 0.454768 0.455112 0.455363 0.455522 0.455596 0.455506 0.455435 0.455281 0.455041 0.45471 0.454292 0.453785 0.453198 0.452531 0.451797 0.450997 0.450149 0.449256 0.448337 0.447399 0.446464 0.445542 0.444663 0.44384 0.443111 0.442501 0.442063 0.44184 0.441911 0.442353 0.443294 0.444872 0.447299 0.450826 0.455812 0.462704 0.472121 0.484847 0.501932 0.524696 0.554831 0.594355 0.64559 0.710837 0.791881 0.889001 0.999924 1.11898 1.23761 1.34639 1.43802 1.50918 1.56074 1.59601 1.61911 1.63373 1.64273 1.64809 1.65119 1.65284 1.65363 1.65385 1.65375 1.65343 1.65301 1.65249 1.65195 1.65136 1.65078 1.65018 1.6496 1.64901 1.64844 1.64786 1.64732 1.64677 1.64625 1.64572 1.64522 1.64472 1.64425 1.64377 1.64332 1.64286 1.64243 1.64199 1.64159 1.64117 1.64078 1.64038 1.64001 1.63964 1.6393 1.63896 1.63865 1.63834 1.63808 1.63782 1.63761 1.63741 1.63726 1.63712 1.63704 1.63697 1.63696 1.63697 1.63704 1.63712 1.63726 1.63741 1.63761 1.63782 1.63808 1.63834 1.63865 1.63896 1.6393 1.63964 1.64001 1.64038 1.64078 1.64117 1.64159 1.64199 1.64243 1.64286 1.64332 1.64377 1.64425 1.64472 1.64522 1.64572 1.64625 1.64676 1.64732 1.64786 1.64844 1.649 1.6496 1.65018 1.65078 1.65136 1.65195 1.6525 1.65302 1.65345 1.65377 1.65387 1.65365 1.65287 1.65122 1.64813 1.64277 1.63376 1.61915 1.59604 1.56076 1.50918 1.43798 1.34631 1.23746 1.11875 0.999629 0.888642 0.791464 0.710367 0.645068 0.59378 0.5542 0.524006 0.501179 0.484029 0.471236 0.46175 0.454789 0.449736 0.446144 0.443656 0.442022 0.441031 0.440546 0.44044 0.440638 0.441059 0.441663 0.442397 0.443236 0.444142 0.445102 0.446086 0.447084 0.448073 0.449046 0.449982 0.450877 0.451712 0.452485 0.453182 0.4538 0.45433 0.454772 0.455119 0.455375 0.455538 0.455615 0.455512 0.455439 0.455282 0.455039 0.454706 0.454286 0.45378 0.453195 0.452532 0.451804 0.451011 0.450171 0.449286 0.448376 0.447446 0.446519 0.445603 0.444727 0.443904 0.443171 0.442551 0.442097 0.441848 0.441881 0.442272 0.443141 0.444623 0.446921 0.450274 0.455029 0.461612 0.470617 0.482793 0.499147 0.520947 0.54982 0.58772 0.636923 0.699737 0.778065 0.872481 0.981202 1.09914 1.21818 1.3289 1.42353 1.49806 1.55272 1.59048 1.61543 1.63132 1.64118 1.6471 1.65054 1.65242 1.65335 1.65365 1.65361 1.65333 1.65292 1.65241 1.65188 1.65129 1.65071 1.6501 1.64952 1.64892 1.64835 1.64776 1.64721 1.64665 1.64611 1.64557 1.64506 1.64454 1.64405 1.64355 1.64309 1.64261 1.64216 1.6417 1.64126 1.64082 1.64041 1.63998 1.63959 1.63919 1.63883 1.63846 1.63813 1.6378 1.63752 1.63724 1.63701 1.63679 1.63663 1.63648 1.63639 1.63633 1.63631 1.63633 1.63639 1.63648 1.63663 1.63679 1.63701 1.63724 1.63752 1.6378 1.63813 1.63846 1.63883 1.63919 1.63959 1.63998 1.64041 1.64082 1.64126 1.64169 1.64216 1.6426 1.64308 1.64355 1.64405 1.64454 1.64506 1.64557 1.64611 1.64664 1.64721 1.64776 1.64835 1.64892 1.64952 1.65011 1.65071 1.65129 1.65188 1.65242 1.65293 1.65334 1.65363 1.65367 1.65337 1.65244 1.65057 1.64713 1.64121 1.63136 1.61547 1.59051 1.55273 1.49805 1.42348 1.32879 1.218 1.09889 0.980883 0.8721 0.777627 0.699247 0.636382 0.587126 0.54917 0.520238 0.498376 0.481957 0.469713 0.460641 0.453989 0.44917 0.445753 0.443396 0.44186 0.440943 0.440512 0.440446 0.440671 0.441113 0.441729 0.442469 0.44331 0.444216 0.445173 0.446151 0.447143 0.448125 0.449091 0.450021 0.450909 0.451741 0.452511 0.453207 0.453826 0.454358 0.454804 0.455156 0.455416 0.455584 0.455665 0.455551 0.455474 0.455313 0.455066 0.45473 0.454308 0.453801 0.453217 0.452556 0.451831 0.451043 0.450208 0.44933 0.448425 0.447501 0.446579 0.445666 0.444791 0.443965 0.443226 0.442594 0.442119 0.441841 0.441834 0.442169 0.442962 0.444342 0.446503 0.449674 0.454185 0.460445 0.469018 0.480619 0.49621 0.517 0.544551 0.580747 0.627806 0.688034 0.763438 0.854879 0.961068 1.07755 1.19674 1.30932 1.40707 1.48526 1.54338 1.584 1.61109 1.62848 1.63934 1.64592 1.64979 1.65193 1.65303 1.65344 1.65347 1.65322 1.65284 1.65235 1.65182 1.65123 1.65065 1.65005 1.64946 1.64885 1.64827 1.64768 1.64711 1.64654 1.64599 1.64544 1.64491 1.64438 1.64387 1.64335 1.64286 1.64236 1.64188 1.6414 1.64094 1.64047 1.64003 1.63958 1.63916 1.63873 1.63834 1.63795 1.63759 1.63724 1.63693 1.63663 1.63638 1.63615 1.63597 1.63582 1.63572 1.63565 1.63563 1.63565 1.63572 1.63582 1.63597 1.63615 1.63638 1.63663 1.63693 1.63724 1.63759 1.63795 1.63834 1.63873 1.63916 1.63958 1.64003 1.64047 1.64094 1.6414 1.64188 1.64236 1.64286 1.64335 1.64387 1.64437 1.64491 1.64544 1.64599 1.64654 1.64711 1.64768 1.64827 1.64885 1.64946 1.65005 1.65066 1.65124 1.65182 1.65236 1.65285 1.65324 1.65349 1.65346 1.65305 1.65196 1.64982 1.64595 1.63938 1.62852 1.61112 1.58403 1.54339 1.48524 1.40701 1.30919 1.19654 1.07728 0.96073 0.854479 0.762983 0.687527 0.627248 0.580136 0.543884 0.516274 0.495421 0.479765 0.468097 0.459457 0.45313 0.448554 0.445321 0.443103 0.44167 0.440832 0.440459 0.440436 0.440693 0.441157 0.441788 0.442538 0.443384 0.444291 0.445247 0.446223 0.44721 0.448188 0.449149 0.450074 0.45096 0.451788 0.452558 0.453254 0.453875 0.454411 0.454862 0.45522 0.455486 0.45566 0.455745 0.45562 0.45554 0.455374 0.455122 0.454781 0.454355 0.453846 0.45326 0.4526 0.451876 0.451092 0.45026 0.449385 0.448485 0.447564 0.446644 0.445732 0.444855 0.444024 0.443275 0.442628 0.442131 0.441822 0.441771 0.442046 0.442759 0.444032 0.446051 0.449033 0.453292 0.459216 0.467343 0.478351 0.493152 0.5129 0.539083 0.573511 0.618338 0.675851 0.748146 0.836351 0.939673 1.05433 1.17333 1.28758 1.38851 1.4706 1.53255 1.57641 1.60597 1.62512 1.63717 1.64453 1.6489 1.65137 1.65267 1.65321 1.65332 1.65312 1.65277 1.6523 1.65177 1.6512 1.65062 1.65001 1.64941 1.6488 1.64821 1.64761 1.64704 1.64645 1.64589 1.64532 1.64478 1.64423 1.6437 1.64316 1.64265 1.64213 1.64163 1.64112 1.64063 1.64014 1.63967 1.63919 1.63874 1.63829 1.63787 1.63745 1.63707 1.63669 1.63636 1.63604 1.63577 1.63552 1.63533 1.63516 1.63506 1.63498 1.63496 1.63498 1.63506 1.63516 1.63533 1.63552 1.63577 1.63604 1.63636 1.63669 1.63707 1.63745 1.63787 1.63829 1.63874 1.63919 1.63967 1.64014 1.64063 1.64112 1.64163 1.64213 1.64265 1.64316 1.6437 1.64422 1.64478 1.64532 1.64589 1.64645 1.64703 1.64761 1.64821 1.6488 1.64941 1.65001 1.65062 1.6512 1.65178 1.6523 1.65278 1.65314 1.65333 1.65323 1.65269 1.65139 1.64893 1.64456 1.6372 1.62515 1.606 1.57644 1.53256 1.47058 1.38844 1.28744 1.17311 1.05404 0.939318 0.835936 0.747676 0.67533 0.617765 0.572885 0.5384 0.512158 0.492347 0.47748 0.466405 0.458212 0.452221 0.447898 0.444855 0.442781 0.441456 0.4407 0.440388 0.440412 0.440702 0.441191 0.441839 0.442601 0.443455 0.444367 0.445323 0.446299 0.447285 0.448261 0.449219 0.450142 0.451026 0.451854 0.452624 0.453322 0.453947 0.454488 0.454944 0.455309 0.455582 0.455762 0.45585 0.455716 0.455632 0.455461 0.455203 0.454856 0.454426 0.453913 0.453325 0.452664 0.45194 0.451156 0.450326 0.449453 0.448554 0.447634 0.446714 0.445801 0.444919 0.444081 0.44332 0.442655 0.442133 0.44179 0.441692 0.441905 0.442535 0.443698 0.44557 0.448358 0.452359 0.45794 0.46561 0.476011 0.490007 0.508688 0.533472 0.566087 0.608614 0.663309 0.732332 0.817058 0.917175 1.02959 1.14799 1.26365 1.36772 1.45391 1.52005 1.56756 1.59995 1.62114 1.63459 1.64287 1.64785 1.6507 1.65225 1.65295 1.65315 1.65302 1.65271 1.65225 1.65174 1.65117 1.65059 1.64999 1.64939 1.64877 1.64818 1.64757 1.64698 1.64638 1.64581 1.64523 1.64467 1.6441 1.64355 1.643 1.64246 1.64192 1.64139 1.64086 1.64035 1.63982 1.63933 1.63882 1.63834 1.63786 1.63741 1.63697 1.63656 1.63616 1.6358 1.63546 1.63517 1.63491 1.6347 1.63453 1.63441 1.63433 1.63431 1.63433 1.63441 1.63453 1.6347 1.63491 1.63517 1.63546 1.6358 1.63616 1.63656 1.63697 1.63741 1.63786 1.63834 1.63882 1.63933 1.63982 1.64034 1.64086 1.64139 1.64191 1.64246 1.64299 1.64355 1.6441 1.64467 1.64522 1.64581 1.64638 1.64698 1.64756 1.64817 1.64877 1.64939 1.64999 1.6506 1.65118 1.65175 1.65226 1.65272 1.65303 1.65317 1.65297 1.65227 1.65073 1.64788 1.64291 1.63462 1.62117 1.59998 1.56758 1.52005 1.45388 1.36763 1.26349 1.14777 1.02929 0.916807 0.816631 0.731851 0.662776 0.608029 0.565448 0.532776 0.507932 0.489186 0.475125 0.464657 0.45692 0.451273 0.447209 0.44436 0.442434 0.441221 0.440549 0.440301 0.440374 0.4407 0.441216 0.441884 0.44266 0.443523 0.444441 0.445402 0.44638 0.447366 0.448342 0.4493 0.450223 0.451107 0.451936 0.452708 0.45341 0.454039 0.454586 0.455048 0.45542 0.455701 0.455887 0.455979 0.455836 0.455748 0.455571 0.455307 0.454954 0.454518 0.454001 0.453409 0.452745 0.452019 0.451234 0.450403 0.44953 0.448631 0.44771 0.446788 0.44587 0.444982 0.444135 0.443359 0.442675 0.442126 0.441747 0.4416 0.441749 0.442293 0.443344 0.445066 0.447657 0.451396 0.45663 0.463837 0.473624 0.486803 0.504406 0.527771 0.558545 0.598724 0.650522 0.71614 0.797166 0.893745 1.00348 1.12082 1.2375 1.34457 1.43499 1.50566 1.55723 1.59286 1.61642 1.63151 1.6409 1.6466 1.64991 1.65175 1.65264 1.65297 1.65291 1.65264 1.65222 1.65173 1.65117 1.65059 1.64998 1.64938 1.64876 1.64816 1.64754 1.64695 1.64634 1.64575 1.64516 1.64458 1.644 1.64343 1.64286 1.6423 1.64173 1.64119 1.64063 1.64009 1.63954 1.63902 1.63849 1.63798 1.63748 1.637 1.63653 1.6361 1.63567 1.6353 1.63494 1.63463 1.63435 1.63413 1.63394 1.63382 1.63373 1.63371 1.63373 1.63382 1.63394 1.63413 1.63435 1.63463 1.63494 1.6353 1.63567 1.6361 1.63653 1.637 1.63748 1.63798 1.63849 1.63902 1.63954 1.64009 1.64063 1.64118 1.64173 1.6423 1.64285 1.64343 1.64399 1.64458 1.64515 1.64575 1.64634 1.64694 1.64754 1.64816 1.64876 1.64938 1.64999 1.6506 1.65117 1.65174 1.65223 1.65266 1.65293 1.65298 1.65267 1.65178 1.64994 1.64663 1.64093 1.63155 1.61645 1.59289 1.55725 1.50565 1.43495 1.34447 1.23734 1.12058 1.00317 0.893367 0.79673 0.715649 0.64998 0.598129 0.557895 0.527063 0.503637 0.485969 0.472724 0.462869 0.455595 0.450295 0.446493 0.443843 0.442067 0.440968 0.440383 0.440201 0.440323 0.440688 0.441233 0.441922 0.442714 0.443589 0.444515 0.445481 0.446463 0.447452 0.44843 0.449389 0.450314 0.4512 0.452032 0.452808 0.453514 0.454148 0.454702 0.455171 0.455551 0.455839 0.456031 0.456128 0.455976 0.455884 0.455702 0.455431 0.455071 0.454629 0.454106 0.453509 0.452841 0.452112 0.451325 0.450491 0.449616 0.448714 0.447791 0.446864 0.445941 0.445044 0.444185 0.443393 0.442688 0.44211 0.441693 0.441496 0.44158 0.442037 0.442974 0.444545 0.446937 0.450412 0.455297 0.46204 0.47121 0.483571 0.50009 0.52203 0.550949 0.588755 0.637601 0.699707 0.776841 0.869565 0.976171 1.09193 1.20916 1.31895 1.41364 1.48912 1.54519 1.5845 1.61081 1.62784 1.63853 1.64509 1.64897 1.65117 1.65229 1.65275 1.65279 1.65258 1.6522 1.65173 1.65118 1.65061 1.65 1.6494 1.64877 1.64817 1.64754 1.64694 1.64632 1.64572 1.64511 1.64452 1.64392 1.64334 1.64274 1.64217 1.64158 1.64101 1.64043 1.63987 1.6393 1.63875 1.63819 1.63766 1.63713 1.63663 1.63613 1.63568 1.63523 1.63484 1.63446 1.63414 1.63384 1.63361 1.63341 1.63328 1.63319 1.63317 1.63319 1.63328 1.63341 1.63361 1.63384 1.63414 1.63446 1.63484 1.63523 1.63568 1.63613 1.63663 1.63713 1.63766 1.63819 1.63874 1.63929 1.63986 1.64043 1.64101 1.64158 1.64216 1.64274 1.64333 1.64392 1.64452 1.64511 1.64572 1.64632 1.64693 1.64754 1.64816 1.64878 1.6494 1.65 1.65061 1.65118 1.65173 1.65221 1.65259 1.65281 1.65277 1.65231 1.65119 1.649 1.64512 1.63857 1.62788 1.61085 1.58453 1.54521 1.48912 1.41359 1.31884 1.20899 1.09168 0.975852 0.869181 0.776399 0.699211 0.637052 0.588152 0.55029 0.521312 0.499309 0.482724 0.470296 0.461058 0.454248 0.449297 0.44576 0.443309 0.441684 0.4407 0.440203 0.440088 0.440262 0.440666 0.441241 0.441953 0.442763 0.443651 0.444588 0.445561 0.446549 0.447543 0.448524 0.449487 0.450415 0.451304 0.452141 0.452921 0.453633 0.454274 0.454834 0.455311 0.455698 0.455994 0.456192 0.456293 0.456133 0.456038 0.45585 0.455572 0.455206 0.454757 0.454227 0.453624 0.452951 0.452217 0.451426 0.450589 0.44971 0.448804 0.447875 0.446942 0.446011 0.445104 0.444232 0.443423 0.442695 0.442087 0.441631 0.441383 0.4414 0.441769 0.442592 0.444012 0.446205 0.449417 0.453953 0.460233 0.468789 0.480335 0.495776 0.516294 0.54336 0.578786 0.624652 0.68317 0.756249 0.844827 0.947855 1.06145 1.17866 1.29078 1.38966 1.47019 1.53118 1.57464 1.60413 1.62343 1.63568 1.64327 1.64782 1.65045 1.65186 1.6525 1.65265 1.65252 1.65218 1.65173 1.6512 1.65064 1.65004 1.64944 1.64881 1.6482 1.64757 1.64695 1.64632 1.64571 1.64509 1.64449 1.64387 1.64327 1.64266 1.64207 1.64146 1.64087 1.64027 1.63969 1.63909 1.63852 1.63795 1.63739 1.63684 1.63632 1.63581 1.63533 1.63487 1.63445 1.63406 1.63372 1.63342 1.63317 1.63297 1.63283 1.63274 1.63272 1.63274 1.63283 1.63297 1.63317 1.63342 1.63372 1.63406 1.63445 1.63487 1.63533 1.63581 1.63632 1.63684 1.63739 1.63795 1.63852 1.63909 1.63969 1.64027 1.64087 1.64146 1.64207 1.64266 1.64327 1.64387 1.64449 1.64509 1.64571 1.64632 1.64695 1.64756 1.64819 1.64881 1.64944 1.65004 1.65065 1.65121 1.65174 1.65219 1.65253 1.65267 1.65252 1.65188 1.65048 1.64785 1.6433 1.63572 1.62347 1.60417 1.57467 1.5312 1.47018 1.38961 1.29067 1.17848 1.06119 0.947532 0.84444 0.755804 0.682671 0.624099 0.578178 0.542694 0.515567 0.494984 0.479477 0.467864 0.459239 0.452891 0.448289 0.445015 0.442763 0.441289 0.44042 0.440012 0.439964 0.440191 0.440635 0.441241 0.441978 0.442807 0.443709 0.444658 0.44564 0.446636 0.447635 0.448622 0.44959 0.450523 0.451417 0.45226 0.453045 0.453764 0.454411 0.454979 0.455465 0.45586 0.456162 0.456367 0.456471 0.456304 0.456206 0.456012 0.455728 0.455354 0.454898 0.454361 0.453752 0.453073 0.452333 0.451536 0.450694 0.449809 0.448897 0.447962 0.447021 0.446081 0.445162 0.444276 0.443447 0.442696 0.442056 0.441561 0.441261 0.441211 0.441493 0.442201 0.443472 0.445468 0.448418 0.452609 0.458431 0.46638 0.477119 0.491494 0.510606 0.535835 0.568892 0.611773 0.666659 0.735558 0.819731 0.918747 1.02957 1.14611 1.26004 1.36289 1.4486 1.5149 1.56301 1.59617 1.61813 1.63223 1.64106 1.64642 1.64959 1.65133 1.65219 1.65249 1.65244 1.65216 1.65175 1.65124 1.65069 1.6501 1.6495 1.64887 1.64825 1.64762 1.64699 1.64636 1.64574 1.64511 1.64449 1.64386 1.64324 1.64262 1.642 1.64138 1.64077 1.64015 1.63955 1.63894 1.63834 1.63775 1.63718 1.63661 1.63606 1.63553 1.63504 1.63456 1.63413 1.63373 1.63338 1.63306 1.63281 1.6326 1.63246 1.63236 1.63234 1.63236 1.63246 1.6326 1.63281 1.63306 1.63338 1.63373 1.63413 1.63456 1.63504 1.63553 1.63606 1.6366 1.63717 1.63775 1.63834 1.63894 1.63955 1.64015 1.64077 1.64138 1.642 1.64262 1.64324 1.64386 1.64448 1.6451 1.64573 1.64636 1.64699 1.64761 1.64825 1.64887 1.6495 1.6501 1.6507 1.65125 1.65176 1.65217 1.65245 1.6525 1.65221 1.65135 1.64961 1.64645 1.64109 1.63227 1.61817 1.59621 1.56305 1.51491 1.44858 1.36283 1.25992 1.14592 1.02931 0.91842 0.819343 0.735113 0.666158 0.611217 0.56828 0.535164 0.509872 0.490694 0.476251 0.465443 0.457425 0.451535 0.447277 0.444264 0.442209 0.440886 0.440132 0.439811 0.439831 0.44011 0.440595 0.441234 0.441996 0.442845 0.443763 0.444725 0.445718 0.446722 0.44773 0.448724 0.449698 0.450637 0.451538 0.452386 0.453179 0.453905 0.45456 0.455136 0.455629 0.456032 0.456342 0.456552 0.45666 0.456487 0.456386 0.456187 0.455895 0.455515 0.455051 0.454507 0.45389 0.453204 0.452457 0.451654 0.450804 0.449913 0.448994 0.448051 0