# vtk DataFile Version 3.0
Immiscible displacement
ASCII
DATASET RECTILINEAR_GRID
DIMENSIONS 200 200 1
X_COORDINATES 200 double
1 2 3 4 5 6 7 8 9 10 11 12 13 14 15 16 17 18 19 20 21 22 23 24 25 26 27 28 29 30 31 32 33 34 35 36 37 38 39 40 41 42 43 44 45 46 47 48 49 50 51 52 53 54 55 56 57 58 59 60 61 62 63 64 65 66 67 68 69 70 71 72 73 74 75 76 77 78 79 80 81 82 83 84 85 86 87 88 89 90 91 92 93 94 95 96 97 98 99 100 101 102 103 104 105 106 107 108 109 110 111 112 113 114 115 116 117 118 119 120 121 122 123 124 125 126 127 128 129 130 131 132 133 134 135 136 137 138 139 140 141 142 143 144 145 146 147 148 149 150 151 152 153 154 155 156 157 158 159 160 161 162 163 164 165 166 167 168 169 170 171 172 173 174 175 176 177 178 179 180 181 182 183 184 185 186 187 188 189 190 191 192 193 194 195 196 197 198 199 200 
Y_COORDINATES 200 double
1 2 3 4 5 6 7 8 9 10 11 12 13 14 15 16 17 18 19 20 21 22 23 24 25 26 27 28 29 30 31 32 33 34 35 36 37 38 39 40 41 42 43 44 45 46 47 48 49 50 51 52 53 54 55 56 57 58 59 60 61 62 63 64 65 66 67 68 69 70 71 72 73 74 75 76 77 78 79 80 81 82 83 84 85 86 87 88 89 90 91 92 93 94 95 96 97 98 99 100 101 102 103 104 105 106 107 108 109 110 111 112 113 114 115 116 117 118 119 120 121 122 123 124 125 126 127 128 129 130 131 132 133 134 135 136 137 138 139 140 141 142 143 144 145 146 147 148 149 150 151 152 153 154 155 156 157 158 159 160 161 162 163 164 165 166 167 168 169 170 171 172 173 174 175 176 177 178 179 180 181 182 183 184 185 186 187 188 189 190 191 192 193 194 195 196 197 198 199 200 
Z_COORDINATES 1 double
0
POINT_DATA 40000
SCALARS rho double 1
LOOKUP_TABLE default
0.429355 0.429284 0.429189 0.429092 0.429006 0.428938 0.428893 0.428873 0.428881 0.428918 0.428986 0.429087 0.429223 0.429397 0.429614 0.429879 0.4302 0.430588 0.431057 0.431628 0.432326 0.43319 0.434268 0.435628 0.437359 0.439586 0.442473 0.446243 0.451194 0.457728 0.466378 0.477856 0.493099 0.513331 0.54012 0.575417 0.621525 0.680938 0.755884 0.847533 0.954816 1.07334 1.19521 1.31057 1.41055 1.49009 1.54867 1.58916 1.61577 1.63262 1.64294 1.64908 1.65259 1.65448 1.65538 1.65567 1.6556 1.6553 1.65487 1.65437 1.65382 1.65325 1.65266 1.65207 1.65147 1.65089 1.65031 1.64974 1.64917 1.64862 1.64808 1.64755 1.64703 1.64653 1.64604 1.64557 1.64511 1.64467 1.64424 1.64383 1.64343 1.64306 1.6427 1.64237 1.64204 1.64174 1.64146 1.6412 1.64096 1.64074 1.64053 1.64035 1.64019 1.64006 1.63993 1.63984 1.63976 1.63971 1.63967 1.63966 1.63967 1.6397 1.63975 1.63983 1.63992 1.64004 1.64017 1.64034 1.64051 1.64071 1.64093 1.64117 1.64143 1.64171 1.64201 1.64233 1.64267 1.64303 1.6434 1.6438 1.6442 1.64463 1.64508 1.64554 1.64601 1.6465 1.64701 1.64753 1.64806 1.6486 1.64915 1.64972 1.65029 1.65088 1.65146 1.65206 1.65265 1.65324 1.65382 1.65437 1.65488 1.65531 1.6556 1.65567 1.65537 1.65445 1.65253 1.64896 1.64273 1.63226 1.6152 1.58827 1.54735 1.48823 1.40813 1.30766 1.19203 1.07015 0.951869 0.844999 0.753827 0.679347 0.620346 0.57458 0.539558 0.512987 0.492923 0.477812 0.466435 0.457865 0.451394 0.446494 0.442765 0.439913 0.437714 0.436008 0.43467 0.433612 0.432765 0.432082 0.431525 0.431069 0.430692 0.430381 0.430124 0.429915 0.429746 0.429614 0.429515 0.429447 0.429408 0.429396 0.429411 0.42945 0.429512 0.429594 0.429691 0.429797 0.429899 0.429973 0.429275 0.429222 0.429142 0.429058 0.428981 0.428921 0.428881 0.428866 0.428878 0.428919 0.428989 0.429093 0.42923 0.429407 0.429624 0.429891 0.430212 0.430601 0.43107 0.431641 0.432338 0.4332 0.434275 0.435631 0.437357 0.439577 0.442453 0.446211 0.451143 0.457654 0.466272 0.477708 0.492892 0.513048 0.539733 0.574896 0.620831 0.68003 0.754726 0.846112 0.953156 1.07153 1.19338 1.30887 1.40911 1.48896 1.54785 1.5886 1.6154 1.63238 1.64279 1.649 1.65255 1.65447 1.65538 1.65569 1.65562 1.65533 1.6549 1.6544 1.65385 1.65328 1.65269 1.6521 1.6515 1.65092 1.65034 1.64977 1.6492 1.64866 1.64811 1.64758 1.64706 1.64656 1.64607 1.6456 1.64513 1.64469 1.64426 1.64386 1.64346 1.64309 1.64272 1.64239 1.64206 1.64177 1.64148 1.64122 1.64097 1.64076 1.64055 1.64037 1.64021 1.64007 1.63995 1.63986 1.63977 1.63973 1.63969 1.63968 1.63968 1.63972 1.63977 1.63985 1.63994 1.64006 1.64019 1.64035 1.64053 1.64073 1.64095 1.64119 1.64145 1.64174 1.64203 1.64236 1.64269 1.64305 1.64342 1.64382 1.64423 1.64466 1.6451 1.64557 1.64604 1.64654 1.64703 1.64756 1.64809 1.64863 1.64918 1.64975 1.65032 1.65091 1.6515 1.65209 1.65268 1.65328 1.65385 1.65441 1.65491 1.65533 1.65562 1.65569 1.65537 1.65444 1.65248 1.64888 1.64258 1.63203 1.61483 1.5877 1.54652 1.4871 1.40668 1.30596 1.19019 1.06835 0.95022 0.843589 0.752679 0.678447 0.619658 0.574064 0.539175 0.512706 0.492717 0.477664 0.466329 0.457791 0.451344 0.446461 0.442745 0.439903 0.437711 0.43601 0.434676 0.433621 0.432775 0.432094 0.431537 0.431081 0.430704 0.430392 0.430135 0.429924 0.429753 0.42962 0.429518 0.429448 0.429406 0.429392 0.429402 0.429437 0.429493 0.429567 0.429655 0.429748 0.429834 0.429891 0.429159 0.429122 0.429062 0.428995 0.428934 0.428886 0.428856 0.42885 0.428869 0.428916 0.428991 0.429099 0.429241 0.42942 0.42964 0.429909 0.430232 0.430622 0.43109 0.43166 0.432355 0.433214 0.434284 0.435632 0.437348 0.439554 0.442411 0.446143 0.451041 0.457505 0.466058 0.477408 0.492477 0.512478 0.538957 0.573849 0.619438 0.678208 0.752406 0.843264 0.949831 1.06789 1.1897 1.30545 1.40621 1.48669 1.5462 1.58746 1.61465 1.6319 1.6425 1.64883 1.65246 1.65444 1.65538 1.65571 1.65565 1.65537 1.65495 1.65445 1.6539 1.65334 1.65275 1.65216 1.65156 1.65098 1.6504 1.64983 1.64926 1.64871 1.64817 1.64764 1.64712 1.64662 1.64612 1.64565 1.64519 1.64475 1.64431 1.64391 1.64351 1.64313 1.64277 1.64243 1.64211 1.64181 1.64152 1.64126 1.64101 1.6408 1.64059 1.64041 1.64024 1.64011 1.63999 1.63989 1.63981 1.63976 1.63972 1.63972 1.63972 1.63976 1.6398 1.63988 1.63997 1.6401 1.64023 1.64039 1.64057 1.64077 1.64099 1.64124 1.64149 1.64178 1.64208 1.6424 1.64274 1.6431 1.64347 1.64387 1.64428 1.64472 1.64516 1.64562 1.6461 1.64659 1.64709 1.64762 1.64814 1.64869 1.64924 1.64982 1.65039 1.65097 1.65156 1.65215 1.65274 1.65334 1.65391 1.65446 1.65496 1.65538 1.65565 1.65571 1.65537 1.6544 1.6524 1.64871 1.64229 1.63155 1.61407 1.58655 1.54486 1.48482 1.40377 1.30254 1.18652 1.06472 0.946915 0.840762 0.750378 0.676641 0.618277 0.573027 0.538405 0.51214 0.492305 0.477366 0.466117 0.457642 0.451241 0.446393 0.442702 0.439879 0.437701 0.436011 0.434683 0.433633 0.432792 0.432112 0.431557 0.431101 0.430723 0.43041 0.43015 0.429937 0.429764 0.429627 0.429522 0.429447 0.4294 0.429379 0.429383 0.429409 0.429454 0.429517 0.429589 0.429664 0.42973 0.429771 0.429028 0.429003 0.42896 0.428913 0.428868 0.428835 0.428819 0.428824 0.428852 0.428907 0.42899 0.429104 0.42925 0.429434 0.429658 0.429929 0.430254 0.430645 0.431114 0.431682 0.432374 0.433229 0.434291 0.435629 0.43733 0.439515 0.442345 0.446038 0.450885 0.457278 0.465737 0.476958 0.491854 0.511622 0.537791 0.572278 0.617346 0.675474 0.748922 0.838985 0.944832 1.06242 1.18415 1.30029 1.40181 1.48325 1.54368 1.58572 1.61351 1.63118 1.64206 1.64857 1.65232 1.65438 1.65537 1.65573 1.65569 1.65543 1.65502 1.65453 1.65398 1.65342 1.65283 1.65224 1.65165 1.65107 1.65048 1.64992 1.64935 1.6488 1.64825 1.64773 1.6472 1.6467 1.64621 1.64574 1.64527 1.64483 1.64439 1.64399 1.64358 1.64321 1.64285 1.64251 1.64218 1.64188 1.64159 1.64133 1.64108 1.64086 1.64066 1.64048 1.64031 1.64018 1.64005 1.63996 1.63988 1.63983 1.63979 1.63978 1.63978 1.63982 1.63987 1.63995 1.64004 1.64016 1.64029 1.64046 1.64064 1.64084 1.64106 1.64131 1.64157 1.64185 1.64215 1.64248 1.64282 1.64318 1.64355 1.64395 1.64436 1.6448 1.64524 1.64571 1.64618 1.64668 1.64718 1.6477 1.64823 1.64878 1.64933 1.6499 1.65047 1.65106 1.65164 1.65224 1.65283 1.65342 1.65398 1.65453 1.65502 1.65544 1.6557 1.65573 1.65536 1.65434 1.65226 1.64845 1.64184 1.63081 1.61292 1.5848 1.54232 1.48136 1.39936 1.29738 1.18098 1.05927 0.941945 0.836513 0.746922 0.67393 0.616204 0.571469 0.53725 0.511291 0.491687 0.476919 0.465796 0.457416 0.451084 0.446287 0.442634 0.439839 0.437682 0.436006 0.434689 0.433646 0.432809 0.432133 0.431579 0.431123 0.430744 0.43043 0.430168 0.429952 0.429774 0.429633 0.429522 0.429442 0.429387 0.429359 0.429352 0.429368 0.4294 0.429447 0.429502 0.429559 0.429607 0.429635 0.428892 0.428876 0.428848 0.428818 0.42879 0.428773 0.428771 0.428789 0.428828 0.428892 0.428983 0.429104 0.429257 0.429446 0.429675 0.429949 0.430277 0.430668 0.431137 0.431704 0.432393 0.43324 0.434293 0.435618 0.437299 0.439459 0.442251 0.445895 0.450673 0.456974 0.465307 0.476358 0.491024 0.510483 0.536242 0.570189 0.614565 0.671836 0.744284 0.833281 0.938154 1.05508 1.17668 1.29332 1.39585 1.47856 1.54024 1.58334 1.61194 1.63018 1.64144 1.64821 1.65213 1.65429 1.65535 1.65575 1.65575 1.6555 1.6551 1.65462 1.65408 1.65352 1.65293 1.65235 1.65176 1.65118 1.65059 1.65003 1.64946 1.64891 1.64836 1.64784 1.64732 1.64682 1.64632 1.64585 1.64538 1.64494 1.6445 1.64409 1.64369 1.64332 1.64295 1.64261 1.64228 1.64199 1.64169 1.64143 1.64118 1.64096 1.64075 1.64058 1.64041 1.64027 1.64015 1.64005 1.63997 1.63992 1.63988 1.63988 1.63988 1.63992 1.63996 1.64004 1.64014 1.64026 1.64039 1.64056 1.64074 1.64094 1.64116 1.64141 1.64167 1.64196 1.64226 1.64259 1.64292 1.64329 1.64366 1.64406 1.64447 1.64491 1.64535 1.64582 1.64629 1.64679 1.64729 1.64782 1.64835 1.64889 1.64944 1.65001 1.65058 1.65117 1.65175 1.65235 1.65293 1.65352 1.65408 1.65463 1.65511 1.65551 1.65575 1.65575 1.65533 1.65425 1.65206 1.64808 1.64122 1.6298 1.61133 1.58241 1.53886 1.47664 1.39338 1.2904 1.17353 1.05196 0.935303 0.830848 0.74232 0.670323 0.613447 0.569399 0.535714 0.510162 0.490863 0.476323 0.465369 0.457113 0.450873 0.446144 0.44254 0.439781 0.43765 0.435993 0.43469 0.433657 0.432826 0.432153 0.431601 0.431146 0.430766 0.43045 0.430184 0.429964 0.429782 0.429635 0.429519 0.429431 0.429368 0.42933 0.429313 0.429315 0.429334 0.429365 0.429403 0.429442 0.429475 0.429494 0.428756 0.428747 0.428732 0.428716 0.428705 0.428703 0.428715 0.428746 0.428797 0.428871 0.428971 0.429101 0.42926 0.429455 0.429688 0.429967 0.430297 0.43069 0.431159 0.431723 0.432407 0.433248 0.434289 0.435597 0.437256 0.439382 0.44213 0.445712 0.450407 0.456593 0.464771 0.475611 0.489992 0.509069 0.534317 0.567595 0.611111 0.667315 0.738512 0.826167 0.929798 1.04586 1.16725 1.28446 1.38823 1.47253 1.53581 1.58026 1.6099 1.62887 1.64064 1.64774 1.65187 1.65416 1.65531 1.65577 1.6558 1.65558 1.6552 1.65473 1.65419 1.65364 1.65306 1.65248 1.65189 1.65131 1.65073 1.65016 1.6496 1.64905 1.6485 1.64798 1.64745 1.64695 1.64646 1.64599 1.64552 1.64508 1.64464 1.64423 1.64383 1.64346 1.64309 1.64275 1.64242 1.64212 1.64183 1.64157 1.64132 1.6411 1.64089 1.64071 1.64054 1.6404 1.64028 1.64018 1.6401 1.64005 1.64001 1.64 1.64001 1.64005 1.64009 1.64017 1.64027 1.64039 1.64052 1.64069 1.64087 1.64108 1.64129 1.64154 1.6418 1.64209 1.64239 1.64272 1.64306 1.64343 1.6438 1.6442 1.64461 1.64505 1.64549 1.64596 1.64643 1.64693 1.64743 1.64796 1.64848 1.64903 1.64958 1.65015 1.65072 1.6513 1.65188 1.65248 1.65306 1.65364 1.6542 1.65473 1.6552 1.65559 1.65581 1.65577 1.65529 1.65412 1.65179 1.6476 1.64041 1.62849 1.60927 1.5793 1.5344 1.47058 1.38574 1.28153 1.16411 1.04277 0.92699 0.82378 0.736591 0.665839 0.610022 0.566827 0.533806 0.50876 0.48984 0.475582 0.464837 0.456734 0.450608 0.445962 0.442419 0.439704 0.437605 0.435971 0.434685 0.433663 0.43284 0.432172 0.431622 0.431167 0.430786 0.430467 0.430199 0.429975 0.429787 0.429634 0.42951 0.429414 0.429342 0.429294 0.429265 0.429255 0.429259 0.429275 0.429297 0.429321 0.429342 0.429354 0.428624 0.428621 0.428616 0.428613 0.428615 0.428628 0.428654 0.428697 0.42876 0.428845 0.428955 0.429092 0.429259 0.42946 0.429699 0.429981 0.430314 0.430708 0.431177 0.431739 0.432418 0.433249 0.434277 0.435566 0.437197 0.439286 0.441981 0.445491 0.450086 0.456137 0.464131 0.474722 0.488765 0.507388 0.532032 0.564514 0.607007 0.661939 0.731636 0.817668 0.919776 1.03474 1.1558 1.27363 1.37884 1.46504 1.53026 1.5764 1.60732 1.62722 1.63962 1.64713 1.65152 1.65399 1.65525 1.65578 1.65586 1.65567 1.6553 1.65485 1.65433 1.65378 1.6532 1.65263 1.65204 1.65147 1.65089 1.65032 1.64976 1.64921 1.64867 1.64814 1.64762 1.64712 1.64663 1.64615 1.64569 1.64525 1.64481 1.6444 1.644 1.64362 1.64326 1.64292 1.64259 1.64229 1.642 1.64173 1.64148 1.64126 1.64105 1.64087 1.6407 1.64057 1.64044 1.64035 1.64026 1.64021 1.64017 1.64017 1.64017 1.64021 1.64026 1.64034 1.64043 1.64055 1.64069 1.64086 1.64103 1.64124 1.64146 1.64171 1.64197 1.64226 1.64256 1.64289 1.64323 1.6436 1.64397 1.64437 1.64478 1.64522 1.64566 1.64613 1.6466 1.6471 1.6476 1.64812 1.64865 1.6492 1.64974 1.65031 1.65088 1.65146 1.65204 1.65263 1.6532 1.65378 1.65433 1.65486 1.65531 1.65568 1.65586 1.65578 1.65523 1.65395 1.65144 1.64698 1.63937 1.62682 1.60667 1.57541 1.52882 1.46306 1.37632 1.27069 1.15267 1.03169 0.917019 0.815336 0.729766 0.660506 0.605954 0.563774 0.531541 0.507094 0.488624 0.4747 0.464202 0.456282 0.450289 0.445741 0.44227 0.439607 0.437546 0.435939 0.434672 0.433663 0.432849 0.432186 0.431639 0.431185 0.430803 0.430482 0.43021 0.429981 0.429788 0.429629 0.429497 0.429393 0.429311 0.429252 0.429212 0.429189 0.429179 0.429181 0.429189 0.429201 0.429211 0.429217 0.428497 0.428499 0.428502 0.42851 0.428524 0.42855 0.428589 0.428644 0.428718 0.428814 0.428933 0.429079 0.429253 0.429461 0.429705 0.429991 0.430327 0.430723 0.43119 0.431749 0.432422 0.433244 0.434257 0.435524 0.437124 0.439169 0.441804 0.445231 0.449713 0.455609 0.463392 0.473697 0.487353 0.505455 0.529405 0.560973 0.602287 0.655748 0.723701 0.807828 0.908114 1.02172 1.14228 1.26072 1.36755 1.45597 1.52349 1.57164 1.60414 1.62517 1.63834 1.64636 1.65108 1.65376 1.65516 1.65578 1.65592 1.65576 1.65542 1.65499 1.65447 1.65393 1.65337 1.6528 1.65221 1.65164 1.65107 1.6505 1.64994 1.6494 1.64886 1.64833 1.64781 1.64731 1.64682 1.64635 1.64588 1.64544 1.64501 1.6446 1.6442 1.64382 1.64346 1.64312 1.64279 1.64249 1.6422 1.64193 1.64168 1.64146 1.64125 1.64107 1.6409 1.64076 1.64064 1.64054 1.64046 1.64041 1.64037 1.64037 1.64037 1.64041 1.64046 1.64054 1.64063 1.64075 1.64089 1.64105 1.64123 1.64144 1.64166 1.64191 1.64217 1.64246 1.64276 1.64309 1.64343 1.6438 1.64417 1.64457 1.64498 1.64542 1.64586 1.64633 1.6468 1.64729 1.64779 1.64832 1.64884 1.64938 1.64993 1.6505 1.65106 1.65164 1.65221 1.6528 1.65337 1.65394 1.65448 1.65499 1.65543 1.65577 1.65592 1.65578 1.65514 1.65372 1.651 1.64621 1.63808 1.62475 1.60346 1.57061 1.52199 1.45393 1.36499 1.25777 1.13917 1.01871 0.905416 0.805558 0.721889 0.654364 0.601273 0.560263 0.528937 0.505178 0.487224 0.473683 0.463469 0.455757 0.449918 0.445482 0.442093 0.43949 0.437472 0.435896 0.434651 0.433657 0.432853 0.432196 0.431652 0.431199 0.430816 0.430493 0.430217 0.429984 0.429785 0.429619 0.42948 0.429367 0.429276 0.429206 0.429155 0.429119 0.429097 0.429086 0.429082 0.429083 0.429085 0.429087 0.428377 0.428382 0.428392 0.428409 0.428435 0.428472 0.428522 0.428589 0.428673 0.428779 0.428907 0.429062 0.429244 0.429457 0.429706 0.429997 0.430335 0.430732 0.431199 0.431754 0.43242 0.433231 0.434227 0.435469 0.437034 0.439031 0.441599 0.444934 0.449289 0.455013 0.46256 0.472545 0.485768 0.503288 0.52646 0.557004 0.596993 0.648794 0.714767 0.796706 0.89486 1.00681 1.12666 1.24564 1.35422 1.44513 1.51533 1.56587 1.60025 1.62265 1.63675 1.6454 1.65053 1.65347 1.65504 1.65576 1.65597 1.65586 1.65555 1.65513 1.65464 1.65411 1.65355 1.65298 1.65241 1.65184 1.65127 1.65071 1.65015 1.64961 1.64907 1.64855 1.64803 1.64753 1.64704 1.64657 1.64611 1.64567 1.64524 1.64483 1.64443 1.64405 1.64369 1.64335 1.64302 1.64272 1.64243 1.64217 1.64191 1.64169 1.64148 1.6413 1.64114 1.641 1.64087 1.64078 1.6407 1.64064 1.64061 1.6406 1.6406 1.64064 1.64069 1.64077 1.64086 1.64099 1.64112 1.64129 1.64147 1.64168 1.6419 1.64215 1.64241 1.6427 1.643 1.64332 1.64366 1.64403 1.6444 1.6448 1.64521 1.64565 1.64609 1.64655 1.64702 1.64751 1.64801 1.64853 1.64905 1.6496 1.65014 1.6507 1.65126 1.65184 1.65241 1.65298 1.65355 1.65411 1.65464 1.65514 1.65556 1.65587 1.65597 1.65576 1.65502 1.65342 1.65044 1.64524 1.63648 1.6222 1.59953 1.56478 1.51377 1.44304 1.35162 1.24268 1.12357 1.00385 0.892228 0.794506 0.71302 0.647465 0.596023 0.556328 0.526018 0.50303 0.485653 0.472541 0.462644 0.455165 0.449497 0.445187 0.441889 0.439352 0.437383 0.435842 0.43462 0.433643 0.432851 0.432201 0.431661 0.431209 0.430826 0.4305 0.430221 0.429983 0.429778 0.429605 0.429459 0.429337 0.429237 0.429157 0.429095 0.429049 0.429015 0.428992 0.428978 0.428969 0.428964 0.428962 0.428263 0.428271 0.428287 0.428312 0.428347 0.428394 0.428455 0.428532 0.428626 0.428742 0.428879 0.429041 0.42923 0.42945 0.429704 0.429999 0.430339 0.430737 0.431202 0.431753 0.432411 0.433209 0.434187 0.435403 0.43693 0.438873 0.441368 0.444601 0.448818 0.454352 0.461642 0.471276 0.484025 0.500907 0.523226 0.552644 0.591175 0.64114 0.704908 0.78438 0.880082 0.990042 1.10892 1.22831 1.33869 1.43235 1.50559 1.55891 1.59552 1.61957 1.63481 1.64421 1.64984 1.65309 1.65486 1.65572 1.65601 1.65596 1.65569 1.65529 1.65481 1.6543 1.65375 1.65319 1.65262 1.65206 1.65149 1.65093 1.65038 1.64984 1.64931 1.64879 1.64827 1.64778 1.64729 1.64682 1.64636 1.64592 1.64549 1.64508 1.64469 1.64431 1.64395 1.64361 1.64328 1.64298 1.64269 1.64243 1.64218 1.64196 1.64175 1.64157 1.6414 1.64126 1.64114 1.64104 1.64096 1.64091 1.64087 1.64087 1.64087 1.64091 1.64096 1.64104 1.64113 1.64125 1.64139 1.64156 1.64173 1.64194 1.64216 1.64241 1.64267 1.64296 1.64326 1.64359 1.64392 1.64429 1.64466 1.64506 1.64547 1.6459 1.64634 1.6468 1.64727 1.64776 1.64826 1.64877 1.64929 1.64983 1.65037 1.65093 1.65148 1.65205 1.65262 1.65319 1.65375 1.6543 1.65482 1.6553 1.65569 1.65596 1.65601 1.65571 1.65484 1.65304 1.64974 1.64403 1.63451 1.61908 1.59476 1.55777 1.50397 1.4302 1.33604 1.22534 1.10586 0.987141 0.877525 0.782259 0.703232 0.639872 0.590253 0.552005 0.522812 0.500669 0.483925 0.471283 0.461733 0.454511 0.44903 0.444857 0.44166 0.439196 0.437279 0.435775 0.434581 0.433622 0.432842 0.4322 0.431665 0.431214 0.43083 0.430503 0.43022 0.429977 0.429767 0.429588 0.429434 0.429304 0.429196 0.429107 0.429034 0.428978 0.428933 0.428901 0.428877 0.428861 0.42885 0.428845 0.428156 0.428167 0.428188 0.428219 0.428262 0.428318 0.428388 0.428474 0.428578 0.428702 0.428847 0.429017 0.429212 0.429438 0.429697 0.429995 0.430338 0.430736 0.431199 0.431745 0.432395 0.43318 0.434137 0.435324 0.43681 0.438696 0.441112 0.444236 0.448304 0.453634 0.460645 0.469902 0.482141 0.498335 0.519735 0.547938 0.584891 0.632861 0.694213 0.770951 0.863873 0.971488 1.08905 1.20865 1.32082 1.41744 1.49408 1.5506 1.58982 1.61581 1.63242 1.64273 1.64896 1.65261 1.65462 1.65564 1.65603 1.65605 1.65582 1.65546 1.655 1.6545 1.65396 1.65341 1.65285 1.65229 1.65173 1.65118 1.65063 1.6501 1.64956 1.64905 1.64854 1.64805 1.64756 1.6471 1.64664 1.6462 1.64577 1.64537 1.64497 1.6446 1.64424 1.6439 1.64358 1.64328 1.64299 1.64273 1.64248 1.64226 1.64205 1.64187 1.6417 1.64157 1.64144 1.64135 1.64126 1.64121 1.64117 1.64117 1.64117 1.64121 1.64126 1.64134 1.64143 1.64155 1.64169 1.64186 1.64203 1.64224 1.64246 1.64271 1.64297 1.64326 1.64355 1.64388 1.64422 1.64458 1.64495 1.64535 1.64575 1.64618 1.64662 1.64708 1.64754 1.64803 1.64852 1.64904 1.64955 1.65009 1.65062 1.65118 1.65173 1.65229 1.65285 1.65341 1.65396 1.65451 1.65501 1.65547 1.65583 1.65606 1.65603 1.65563 1.6546 1.65255 1.64885 1.64254 1.63209 1.61529 1.58901 1.54938 1.49238 1.41521 1.31812 1.20566 1.08602 0.968654 0.8614 0.768914 0.692614 0.631657 0.584021 0.547339 0.519351 0.498119 0.482057 0.469921 0.460746 0.453798 0.44852 0.444495 0.441406 0.43902 0.43716 0.435697 0.434531 0.433593 0.432826 0.432193 0.431663 0.431214 0.430831 0.430501 0.430216 0.429968 0.429753 0.429567 0.429407 0.429269 0.429152 0.429055 0.428973 0.428907 0.428854 0.428813 0.428781 0.428758 0.428743 0.428735 0.428056 0.428069 0.428094 0.428131 0.428181 0.428244 0.428322 0.428417 0.428529 0.428661 0.428814 0.42899 0.429192 0.429423 0.429686 0.429988 0.430332 0.43073 0.431191 0.431732 0.432372 0.433142 0.434078 0.435234 0.436676 0.438501 0.440833 0.443841 0.44775 0.452864 0.459581 0.468437 0.480134 0.495599 0.516024 0.542935 0.578206 0.624041 0.682786 0.756535 0.846353 0.95124 1.06711 1.18661 1.30047 1.40018 1.48057 1.54071 1.58297 1.61126 1.6295 1.64091 1.64787 1.65198 1.6543 1.65552 1.65603 1.65613 1.65596 1.65563 1.6552 1.65471 1.65419 1.65365 1.6531 1.65255 1.65199 1.65145 1.6509 1.65037 1.64985 1.64934 1.64883 1.64834 1.64786 1.6474 1.64694 1.64651 1.64608 1.64568 1.64529 1.64492 1.64456 1.64422 1.6439 1.6436 1.64331 1.64305 1.64281 1.64259 1.64238 1.6422 1.64203 1.6419 1.64177 1.64168 1.6416 1.64155 1.64151 1.6415 1.64151 1.64154 1.64159 1.64167 1.64176 1.64189 1.64202 1.64219 1.64236 1.64257 1.64279 1.64304 1.64329 1.64358 1.64388 1.6442 1.64454 1.6449 1.64527 1.64566 1.64606 1.64649 1.64692 1.64738 1.64784 1.64833 1.64881 1.64932 1.64983 1.65036 1.6509 1.65144 1.65199 1.65255 1.6531 1.65365 1.65419 1.65472 1.65521 1.65564 1.65597 1.65614 1.65603 1.65551 1.65427 1.65191 1.64774 1.6407 1.62914 1.61069 1.58209 1.53941 1.47877 1.39787 1.29772 1.18362 1.06412 0.948482 0.843971 0.754589 0.681268 0.622905 0.57739 0.542378 0.515671 0.495407 0.480068 0.468469 0.45969 0.453035 0.447971 0.444103 0.441129 0.438827 0.437027 0.435607 0.434473 0.433556 0.432804 0.43218 0.431655 0.43121 0.430826 0.430495 0.430207 0.429956 0.429736 0.429544 0.429377 0.429233 0.429108 0.429003 0.428913 0.428839 0.428777 0.428729 0.42869 0.428661 0.428642 0.428632 0.427962 0.427977 0.428005 0.428047 0.428103 0.428173 0.428259 0.428361 0.42848 0.428619 0.428778 0.428961 0.429169 0.429405 0.429672 0.429976 0.430322 0.430719 0.431176 0.431711 0.432342 0.433096 0.434009 0.435132 0.436528 0.43829 0.440533 0.44342 0.447163 0.452049 0.458457 0.466895 0.478025 0.492727 0.512131 0.537688 0.571192 0.614771 0.670742 0.741269 0.827668 0.929429 1.04315 1.16217 1.27751 1.38037 1.46479 1.52899 1.57475 1.60574 1.62592 1.63866 1.6465 1.65119 1.65388 1.65533 1.656 1.6562 1.65609 1.65581 1.6554 1.65494 1.65443 1.6539 1.65336 1.65282 1.65227 1.65173 1.65119 1.65067 1.65015 1.64964 1.64914 1.64866 1.64818 1.64772 1.64727 1.64684 1.64642 1.64602 1.64563 1.64526 1.6449 1.64457 1.64425 1.64395 1.64367 1.64341 1.64317 1.64295 1.64274 1.64256 1.6424 1.64226 1.64214 1.64204 1.64196 1.64191 1.64188 1.64187 1.64187 1.64191 1.64196 1.64204 1.64213 1.64225 1.64239 1.64255 1.64273 1.64293 1.64315 1.64339 1.64365 1.64394 1.64423 1.64455 1.64488 1.64524 1.64561 1.646 1.6464 1.64682 1.64725 1.64771 1.64816 1.64864 1.64913 1.64963 1.65014 1.65066 1.65119 1.65173 1.65227 1.65282 1.65336 1.65391 1.65444 1.65495 1.65541 1.65581 1.6561 1.6562 1.656 1.65531 1.65384 1.65111 1.64635 1.63842 1.62552 1.60511 1.57379 1.5276 1.46289 1.37797 1.27472 1.15918 1.04022 0.926757 0.825386 0.739421 0.669311 0.613706 0.570431 0.537174 0.511811 0.49256 0.477977 0.46694 0.458577 0.452228 0.447389 0.443685 0.440831 0.438617 0.436881 0.435507 0.434405 0.433511 0.432774 0.432161 0.431642 0.4312 0.430817 0.430485 0.430194 0.42994 0.429715 0.429519 0.429345 0.429195 0.429063 0.428951 0.428854 0.428772 0.428704 0.428648 0.428604 0.428571 0.428548 0.428536 0.427874 0.42789 0.427922 0.427968 0.428029 0.428105 0.428197 0.428305 0.428431 0.428576 0.428742 0.42893 0.429143 0.429383 0.429653 0.42996 0.430306 0.430702 0.431156 0.431685 0.432304 0.433042 0.433931 0.43502 0.436368 0.438063 0.440214 0.442975 0.446546 0.451198 0.457287 0.465291 0.475836 0.489749 0.508096 0.532253 0.563921 0.60515 0.658208 0.725307 0.807989 0.90622 1.01732 1.13537 1.25186 1.3578 1.44648 1.51516 1.56492 1.59906 1.62154 1.63588 1.64478 1.65017 1.65331 1.65505 1.65591 1.65623 1.65621 1.65598 1.65561 1.65517 1.65468 1.65417 1.65364 1.65311 1.65257 1.65204 1.6515 1.65099 1.65047 1.64997 1.64947 1.649 1.64852 1.64807 1.64762 1.6472 1.64678 1.64638 1.646 1.64563 1.64528 1.64495 1.64463 1.64434 1.64405 1.6438 1.64355 1.64334 1.64313 1.64295 1.64279 1.64265 1.64253 1.64244 1.64236 1.64231 1.64227 1.64226 1.64227 1.64231 1.64235 1.64243 1.64252 1.64264 1.64278 1.64294 1.64312 1.64332 1.64354 1.64378 1.64403 1.64432 1.64461 1.64493 1.64526 1.64561 1.64598 1.64636 1.64676 1.64718 1.6476 1.64805 1.64851 1.64898 1.64946 1.64996 1.65046 1.65098 1.6515 1.65203 1.65256 1.65311 1.65364 1.65417 1.65469 1.65518 1.65562 1.65598 1.65621 1.65623 1.65591 1.65503 1.65326 1.65007 1.64461 1.6356 1.62109 1.59836 1.56387 1.51367 1.44447 1.35531 1.24902 1.1324 1.01445 0.903643 0.805814 0.723562 0.656866 0.604158 0.563219 0.531783 0.507811 0.489607 0.475807 0.465351 0.457416 0.451384 0.446778 0.443245 0.440516 0.438392 0.436722 0.435396 0.434328 0.433458 0.432738 0.432135 0.431623 0.431185 0.430803 0.430471 0.430178 0.429921 0.429692 0.429491 0.429312 0.429156 0.429018 0.428899 0.428796 0.428708 0.428633 0.428572 0.428523 0.428485 0.42846 0.428446 0.427792 0.42781 0.427844 0.427894 0.427959 0.42804 0.428137 0.428251 0.428382 0.428533 0.428704 0.428897 0.429114 0.429358 0.429631 0.429939 0.430286 0.430681 0.431131 0.431652 0.43226 0.43298 0.433844 0.434897 0.436196 0.437823 0.43988 0.442512 0.445906 0.450317 0.45608 0.463641 0.473587 0.486694 0.503963 0.526685 0.556473 0.595281 0.645317 0.708814 0.787508 0.881813 0.98977 1.1063 1.22347 1.33229 1.42535 1.49892 1.55317 1.59098 1.61618 1.63243 1.64262 1.64886 1.65256 1.65467 1.65576 1.65623 1.6563 1.65614 1.65582 1.65541 1.65494 1.65445 1.65393 1.65341 1.65288 1.65236 1.65183 1.65132 1.65081 1.65032 1.64983 1.64935 1.64889 1.64844 1.648 1.64758 1.64716 1.64677 1.64639 1.64603 1.64568 1.64535 1.64503 1.64474 1.64446 1.64421 1.64397 1.64375 1.64355 1.64337 1.64321 1.64308 1.64296 1.64286 1.64278 1.64273 1.6427 1.64269 1.6427 1.64273 1.64278 1.64286 1.64295 1.64307 1.6432 1.64336 1.64353 1.64374 1.64395 1.64419 1.64444 1.64472 1.64501 1.64533 1.64566 1.64601 1.64637 1.64675 1.64714 1.64756 1.64798 1.64842 1.64887 1.64934 1.64981 1.6503 1.6508 1.65131 1.65182 1.65235 1.65287 1.65341 1.65393 1.65445 1.65495 1.65542 1.65582 1.65614 1.65631 1.65623 1.65575 1.65464 1.6525 1.64875 1.64243 1.63211 1.61567 1.5902 1.55202 1.49731 1.42324 1.32972 1.2206 1.10335 0.986975 0.879342 0.785446 0.707175 0.644066 0.594364 0.55583 0.526261 0.503711 0.486578 0.473578 0.463715 0.45622 0.450511 0.446143 0.442785 0.440184 0.438154 0.436552 0.435275 0.434242 0.433397 0.432694 0.432104 0.431599 0.431164 0.430785 0.430453 0.430159 0.429898 0.429666 0.429461 0.429278 0.429116 0.428974 0.428849 0.42874 0.428646 0.428567 0.4285 0.428447 0.428406 0.428377 0.428363 0.427716 0.427735 0.427771 0.427824 0.427893 0.427978 0.42808 0.428198 0.428335 0.42849 0.428666 0.428863 0.429084 0.429331 0.429606 0.429915 0.430262 0.430654 0.4311 0.431613 0.432208 0.432911 0.433749 0.434766 0.436014 0.437571 0.439532 0.442032 0.445248 0.449415 0.454847 0.461961 0.471302 0.483594 0.499772 0.521043 0.548924 0.585267 0.632203 0.691963 0.766435 0.856442 0.960727 1.0751 1.19237 1.30371 1.40115 1.47992 1.53919 1.58121 1.60962 1.62816 1.63992 1.6472 1.65159 1.65413 1.65551 1.65617 1.65637 1.65628 1.65602 1.65565 1.65521 1.65473 1.65423 1.65372 1.6532 1.65269 1.65217 1.65167 1.65117 1.65068 1.6502 1.64973 1.64927 1.64883 1.64839 1.64797 1.64756 1.64718 1.6468 1.64644 1.6461 1.64577 1.64546 1.64517 1.6449 1.64465 1.64441 1.64419 1.64399 1.64382 1.64366 1.64352 1.6434 1.64331 1.64323 1.64319 1.64315 1.64314 1.64315 1.64318 1.64323 1.64331 1.6434 1.64352 1.64365 1.64381 1.64398 1.64418 1.64439 1.64463 1.64488 1.64516 1.64544 1.64575 1.64608 1.64642 1.64678 1.64716 1.64755 1.64796 1.64837 1.64881 1.64925 1.64972 1.65018 1.65067 1.65116 1.65166 1.65217 1.65268 1.6532 1.65372 1.65423 1.65474 1.65521 1.65566 1.65602 1.65629 1.65637 1.65617 1.6555 1.65409 1.65151 1.64707 1.63969 1.62779 1.60904 1.58033 1.53792 1.47818 1.39891 1.30105 1.18947 1.07219 0.958021 0.854087 0.764494 0.690434 0.631046 0.584425 0.548339 0.520664 0.499554 0.483504 0.471311 0.462049 0.454998 0.449617 0.445491 0.442311 0.43984 0.437905 0.436373 0.435146 0.434149 0.433329 0.432644 0.432066 0.431569 0.431139 0.430762 0.430431 0.430136 0.429873 0.429639 0.429429 0.429242 0.429076 0.428929 0.428799 0.428685 0.428587 0.428503 0.428433 0.428375 0.428331 0.428301 0.428285 0.427645 0.427665 0.427703 0.427759 0.427831 0.427919 0.428025 0.428147 0.428288 0.428447 0.428627 0.428828 0.429051 0.429301 0.429578 0.429887 0.430233 0.430622 0.431063 0.431568 0.432151 0.432835 0.433646 0.434626 0.435823 0.437309 0.439173 0.441542 0.444577 0.4485 0.4536 0.460265 0.469 0.480477 0.495563 0.515382 0.541348 0.57521 0.619004 0.674932 0.744995 0.830367 0.930457 1.04199 1.15864 1.27197 1.37363 1.45782 1.5226 1.56941 1.60158 1.62286 1.63652 1.64508 1.65031 1.65341 1.65515 1.65604 1.65639 1.6564 1.65621 1.65588 1.65548 1.65502 1.65454 1.65404 1.65354 1.65303 1.65253 1.65203 1.65154 1.65106 1.65058 1.65012 1.64967 1.64923 1.6488 1.64839 1.64799 1.64761 1.64723 1.64688 1.64654 1.64622 1.64591 1.64563 1.64535 1.64511 1.64487 1.64466 1.64446 1.64429 1.64413 1.644 1.64388 1.64379 1.64371 1.64366 1.64363 1.64362 1.64362 1.64366 1.64371 1.64378 1.64387 1.64399 1.64412 1.64428 1.64445 1.64464 1.64485 1.64509 1.64534 1.64561 1.64589 1.6462 1.64652 1.64686 1.64721 1.64759 1.64797 1.64837 1.64878 1.64922 1.64965 1.65011 1.65057 1.65105 1.65153 1.65202 1.65252 1.65303 1.65353 1.65404 1.65454 1.65503 1.65548 1.65589 1.65621 1.65641 1.65638 1.65602 1.65512 1.65335 1.65021 1.64492 1.63625 1.62243 1.60092 1.56842 1.52119 1.45593 1.37126 1.26924 1.15573 1.03914 0.927854 0.828135 0.743178 0.673516 0.617942 0.574444 0.540823 0.515048 0.49538 0.480413 0.469029 0.460368 0.453762 0.44871 0.444827 0.441825 0.439485 0.437647 0.436184 0.435008 0.434048 0.433255 0.432588 0.432022 0.431534 0.43111 0.430735 0.430405 0.430109 0.429845 0.429608 0.429396 0.429206 0.429036 0.428885 0.428751 0.428633 0.428531 0.428443 0.428369 0.428308 0.428262 0.42823 0.428213 0.427579 0.4276 0.42764 0.427697 0.427772 0.427863 0.427972 0.428098 0.428242 0.428405 0.428587 0.