# vtk DataFile Version 3.0
Immiscible displacement
ASCII
DATASET RECTILINEAR_GRID
DIMENSIONS 400 100 1
X_COORDINATES 400 double
1 2 3 4 5 6 7 8 9 10 11 12 13 14 15 16 17 18 19 20 21 22 23 24 25 26 27 28 29 30 31 32 33 34 35 36 37 38 39 40 41 42 43 44 45 46 47 48 49 50 51 52 53 54 55 56 57 58 59 60 61 62 63 64 65 66 67 68 69 70 71 72 73 74 75 76 77 78 79 80 81 82 83 84 85 86 87 88 89 90 91 92 93 94 95 96 97 98 99 100 101 102 103 104 105 106 107 108 109 110 111 112 113 114 115 116 117 118 119 120 121 122 123 124 125 126 127 128 129 130 131 132 133 134 135 136 137 138 139 140 141 142 143 144 145 146 147 148 149 150 151 152 153 154 155 156 157 158 159 160 161 162 163 164 165 166 167 168 169 170 171 172 173 174 175 176 177 178 179 180 181 182 183 184 185 186 187 188 189 190 191 192 193 194 195 196 197 198 199 200 201 202 203 204 205 206 207 208 209 210 211 212 213 214 215 216 217 218 219 220 221 222 223 224 225 226 227 228 229 230 231 232 233 234 235 236 237 238 239 240 241 242 243 244 245 246 247 248 249 250 251 252 253 254 255 256 257 258 259 260 261 262 263 264 265 266 267 268 269 270 271 272 273 274 275 276 277 278 279 280 281 282 283 284 285 286 287 288 289 290 291 292 293 294 295 296 297 298 299 300 301 302 303 304 305 306 307 308 309 310 311 312 313 314 315 316 317 318 319 320 321 322 323 324 325 326 327 328 329 330 331 332 333 334 335 336 337 338 339 340 341 342 343 344 345 346 347 348 349 350 351 352 353 354 355 356 357 358 359 360 361 362 363 364 365 366 367 368 369 370 371 372 373 374 375 376 377 378 379 380 381 382 383 384 385 386 387 388 389 390 391 392 393 394 395 396 397 398 399 400 
Y_COORDINATES 100 double
1 2 3 4 5 6 7 8 9 10 11 12 13 14 15 16 17 18 19 20 21 22 23 24 25 26 27 28 29 30 31 32 33 34 35 36 37 38 39 40 41 42 43 44 45 46 47 48 49 50 51 52 53 54 55 56 57 58 59 60 61 62 63 64 65 66 67 68 69 70 71 72 73 74 75 76 77 78 79 80 81 82 83 84 85 86 87 88 89 90 91 92 93 94 95 96 97 98 99 100 
Z_COORDINATES 1 double
0
POINT_DATA 40000
SCALARS rho double 1
LOOKUP_TABLE default
0.47561 0.475609 0.475607 0.475606 0.475604 0.475602 0.475601 0.475599 0.475599 0.475598 0.475598 0.475598 0.475598 0.475599 0.475599 0.475601 0.475602 0.475604 0.475606 0.475608 0.475611 0.475614 0.475617 0.47562 0.475624 0.475628 0.475632 0.475636 0.475641 0.475645 0.47565 0.475655 0.47566 0.475666 0.475671 0.475677 0.475683 0.475689 0.475695 0.475702 0.475708 0.475715 0.475722 0.475729 0.475736 0.475743 0.475751 0.475758 0.475766 0.475773 0.475781 0.475789 0.475797 0.475805 0.475813 0.475821 0.47583 0.475838 0.475847 0.475855 0.475864 0.475873 0.475881 0.47589 0.475899 0.475908 0.475917 0.475926 0.475935 0.475944 0.475954 0.475963 0.475972 0.475982 0.475991 0.476 0.47601 0.476019 0.476029 0.476038 0.476048 0.476057 0.476067 0.476076 0.476086 0.476095 0.476105 0.476115 0.476124 0.476134 0.476143 0.476153 0.476162 0.476172 0.476181 0.476191 0.476201 0.47621 0.47622 0.476229 0.476239 0.476248 0.476257 0.476267 0.476276 0.476286 0.476295 0.476305 0.476314 0.476324 0.476333 0.476343 0.476352 0.476362 0.476372 0.476383 0.476393 0.476404 0.476416 0.476428 0.476441 0.476456 0.476472 0.476491 0.476513 0.476539 0.476571 0.476611 0.47666 0.476723 0.476803 0.476906 0.47704 0.477216 0.477446 0.47775 0.47815 0.47868 0.479382 0.480313 0.48155 0.483194 0.48538 0.488291 0.492168 0.497333 0.504214 0.513383 0.525593 0.541837 0.563401 0.59193 0.629453 0.678344 0.741117 0.819934 0.915724 1.02697 1.14867 1.27235 1.38794 1.48688 1.56476 1.62177 1.66118 1.68733 1.70421 1.71495 1.72172 1.72598 1.72867 1.73036 1.73144 1.73212 1.73256 1.73285 1.73303 1.73316 1.73324 1.73329 1.73333 1.73335 1.73337 1.73338 1.73339 1.7334 1.73341 1.73341 1.73342 1.73342 1.73342 1.73342 1.73343 1.73343 1.73343 1.73343 1.73343 1.73343 1.73343 1.73343 1.73343 1.73343 1.73343 1.73343 1.73343 1.73343 1.73343 1.73343 1.73342 1.73342 1.73342 1.73342 1.73341 1.73341 1.7334 1.73339 1.73338 1.73336 1.73333 1.7333 1.73324 1.73316 1.73304 1.73286 1.73258 1.73214 1.73146 1.73039 1.7287 1.72604 1.7218 1.71507 1.70439 1.6876 1.6616 1.62239 1.56562 1.48802 1.38933 1.27392 1.15028 1.0285 0.917083 0.821084 0.742057 0.679095 0.630046 0.592396 0.563768 0.542128 0.525828 0.513575 0.504374 0.497468 0.492286 0.488396 0.485476 0.483282 0.481633 0.480392 0.479459 0.478755 0.478224 0.477822 0.477518 0.477288 0.477112 0.476978 0.476874 0.476794 0.476732 0.476683 0.476644 0.476612 0.476586 0.476564 0.476546 0.476529 0.476515 0.476502 0.47649 0.476478 0.476468 0.476457 0.476447 0.476437 0.476428 0.476418 0.476409 0.476399 0.47639 0.476381 0.476371 0.476362 0.476352 0.476343 0.476334 0.476324 0.476315 0.476305 0.476296 0.476286 0.476277 0.476267 0.476257 0.476248 0.476238 0.476229 0.476219 0.476209 0.476199 0.47619 0.47618 0.47617 0.47616 0.476151 0.476141 0.476131 0.476121 0.476112 0.476102 0.476092 0.476082 0.476073 0.476063 0.476053 0.476044 0.476034 0.476024 0.476015 0.476005 0.475996 0.475986 0.475977 0.475968 0.475958 0.475949 0.47594 0.475931 0.475922 0.475913 0.475904 0.475895 0.475886 0.475878 0.475869 0.47586 0.475852 0.475844 0.475835 0.475827 0.475819 0.475811 0.475803 0.475796 0.475788 0.475781 0.475774 0.475766 0.475759 0.475752 0.475746 0.475739 0.475733 0.475726 0.47572 0.475714 0.475709 0.475703 0.475698 0.475693 0.475688 0.475683 0.475679 0.475674 0.47567 0.475667 0.475663 0.47566 0.475657 0.475654 0.475651 0.475649 0.475647 0.475646 0.475644 0.475643 0.475643 0.475642 0.475642 0.475643 0.475643 0.475644 0.475645 0.475647 0.475649 0.475651 0.475653 0.475654 0.475656 0.466055 0.466054 0.466053 0.466051 0.466049 0.466048 0.466046 0.466045 0.466045 0.466044 0.466044 0.466044 0.466044 0.466045 0.466046 0.466047 0.466048 0.46605 0.466052 0.466054 0.466057 0.46606 0.466063 0.466066 0.46607 0.466073 0.466077 0.466081 0.466086 0.46609 0.466095 0.4661 0.466105 0.46611 0.466116 0.466121 0.466127 0.466133 0.466139 0.466145 0.466152 0.466158 0.466165 0.466172 0.466178 0.466186 0.466193 0.4662 0.466207 0.466215 0.466222 0.46623 0.466238 0.466246 0.466253 0.466262 0.46627 0.466278 0.466286 0.466294 0.466303 0.466311 0.46632 0.466328 0.466337 0.466346 0.466355 0.466363 0.466372 0.466381 0.46639 0.466399 0.466408 0.466417 0.466426 0.466436 0.466445 0.466454 0.466463 0.466472 0.466482 0.466491 0.4665 0.466509 0.466519 0.466528 0.466537 0.466547 0.466556 0.466565 0.466575 0.466584 0.466593 0.466603 0.466612 0.466621 0.46663 0.46664 0.466649 0.466658 0.466667 0.466676 0.466686 0.466695 0.466704 0.466713 0.466722 0.466732 0.466741 0.46675 0.466759 0.466769 0.466778 0.466788 0.466797 0.466807 0.466817 0.466828 0.466839 0.466851 0.466864 0.466878 0.466894 0.466912 0.466934 0.466959 0.46699 0.467028 0.467075 0.467136 0.467213 0.467312 0.467442 0.467611 0.467833 0.468125 0.46851 0.46902 0.469695 0.470591 0.47178 0.47336 0.475461 0.478257 0.481979 0.486936 0.493536 0.502325 0.514021 0.529569 0.550193 0.577458 0.613291 0.659958 0.719873 0.795164 0.886869 0.993817 1.11161 1.2325 1.34693 1.44638 1.52599 1.58524 1.62684 1.65482 1.67312 1.68487 1.69235 1.69709 1.70009 1.702 1.70322 1.704 1.70451 1.70483 1.70505 1.70519 1.70528 1.70535 1.70539 1.70542 1.70544 1.70546 1.70547 1.70548 1.70548 1.70549 1.70549 1.7055 1.7055 1.7055 1.7055 1.7055 1.70551 1.70551 1.70551 1.70551 1.70551 1.70551 1.70551 1.70551 1.70551 1.70551 1.70551 1.70551 1.7055 1.7055 1.7055 1.7055 1.7055 1.70549 1.70549 1.70548 1.70547 1.70546 1.70545 1.70543 1.7054 1.70535 1.70529 1.7052 1.70506 1.70485 1.70452 1.70402 1.70324 1.70203 1.70013 1.69714 1.69243 1.68499 1.67331 1.65512 1.62728 1.58588 1.52688 1.44754 1.34832 1.23404 1.11317 0.99529 0.888173 0.796264 0.72077 0.660674 0.613857 0.577903 0.550545 0.529848 0.514246 0.502509 0.49369 0.487066 0.482093 0.478359 0.475553 0.473445 0.47186 0.470668 0.46977 0.469093 0.468582 0.468195 0.467903 0.467681 0.467511 0.467382 0.467282 0.467205 0.467145 0.467098 0.46706 0.46703 0.467004 0.466983 0.466965 0.46695 0.466936 0.466923 0.466911 0.4669 0.46689 0.46688 0.46687 0.466861 0.466851 0.466842 0.466833 0.466824 0.466814 0.466805 0.466796 0.466787 0.466778 0.466769 0.46676 0.466751 0.466741 0.466732 0.466723 0.466714 0.466704 0.466695 0.466686 0.466676 0.466667 0.466658 0.466648 0.466639 0.466629 0.46662 0.46661 0.466601 0.466591 0.466582 0.466572 0.466563 0.466553 0.466544 0.466534 0.466525 0.466515 0.466506 0.466497 0.466487 0.466478 0.466468 0.466459 0.46645 0.466441 0.466431 0.466422 0.466413 0.466404 0.466395 0.466386 0.466377 0.466368 0.466359 0.46635 0.466342 0.466333 0.466325 0.466316 0.466308 0.4663 0.466291 0.466283 0.466275 0.466267 0.466259 0.466252 0.466244 0.466237 0.466229 0.466222 0.466215 0.466208 0.466201 0.466195 0.466188 0.466182 0.466175 0.466169 0.466163 0.466158 0.466152 0.466147 0.466142 0.466136 0.466132 0.466127 0.466123 0.466119 0.466115 0.466111 0.466107 0.466104 0.466101 0.466099 0.466096 0.466094 0.466092 0.466091 0.466089 0.466088 0.466088 0.466087 0.466087 0.466087 0.466088 0.466089 0.46609 0.466091 0.466093 0.466095 0.466096 0.466098 0.466099 0.458843 0.458843 0.458842 0.45884 0.458839 0.458838 0.458836 0.458835 0.458835 0.458834 0.458834 0.458834 0.458835 0.458835 0.458836 0.458837 0.458839 0.458841 0.458843 0.458845 0.458847 0.45885 0.458853 0.458856 0.45886 0.458863 0.458867 0.458871 0.458875 0.45888 0.458884 0.458889 0.458894 0.458899 0.458905 0.45891 0.458916 0.458921 0.458927 0.458933 0.45894 0.458946 0.458952 0.458959 0.458966 0.458972 0.458979 0.458986 0.458994 0.459001 0.459008 0.459016 0.459023 0.459031 0.459039 0.459046 0.459054 0.459062 0.45907 0.459078 0.459087 0.459095 0.459103 0.459112 0.45912 0.459128 0.459137 0.459146 0.459154 0.459163 0.459172 0.45918 0.459189 0.459198 0.459207 0.459216 0.459225 0.459234 0.459242 0.459251 0.45926 0.459269 0.459278 0.459288 0.459297 0.459306 0.459315 0.459324 0.459333 0.459342 0.459351 0.45936 0.459369 0.459378 0.459387 0.459396 0.459405 0.459414 0.459423 0.459432 0.459441 0.45945 0.459459 0.459468 0.459477 0.459486 0.459494 0.459503 0.459512 0.459521 0.45953 0.459539 0.459548 0.459558 0.459567 0.459577 0.459587 0.459597 0.459608 0.459619 0.459632 0.459645 0.459661 0.459678 0.459699 0.459723 0.459753 0.459789 0.459834 0.459892 0.459966 0.460061 0.460184 0.460346 0.460557 0.460836 0.461203 0.461688 0.462331 0.463183 0.464314 0.465815 0.467811 0.470464 0.473993 0.478688 0.484933 0.49324 0.504281 0.518937 0.538352 0.563981 0.597623 0.641402 0.697616 0.76837 0.854891 0.956538 1.0698 1.18799 1.30227 1.40412 1.48788 1.55194 1.59808 1.62982 1.65098 1.66479 1.6737 1.67942 1.68309 1.68544 1.68695 1.68793 1.68856 1.68898 1.68925 1.68943 1.68955 1.68964 1.68969 1.68973 1.68976 1.68978 1.68979 1.6898 1.68981 1.68982 1.68982 1.68983 1.68983 1.68983 1.68984 1.68984 1.68984 1.68984 1.68984 1.68984 1.68984 1.68984 1.68984 1.68984 1.68984 1.68984 1.68984 1.68984 1.68984 1.68984 1.68983 1.68983 1.68983 1.68982 1.68982 1.68981 1.6898 1.68978 1.68976 1.68974 1.6897 1.68964 1.68956 1.68944 1.68926 1.68899 1.68858 1.68795 1.68698 1.68547 1.68313 1.67949 1.6738 1.66494 1.6512 1.63016 1.59857 1.55265 1.48884 1.40532 1.30368 1.18951 1.07132 0.957946 0.856126 0.769407 0.69846 0.642076 0.598155 0.5644 0.538684 0.519202 0.504494 0.493415 0.48508 0.478813 0.474102 0.470561 0.467899 0.465897 0.464391 0.463257 0.462403 0.461759 0.461272 0.460904 0.460625 0.460413 0.460252 0.460128 0.460033 0.45996 0.459902 0.459857 0.459821 0.459792 0.459767 0.459747 0.45973 0.459715 0.459701 0.459689 0.459678 0.459667 0.459657 0.459648 0.459638 0.459629 0.45962 0.459611 0.459602 0.459593 0.459584 0.459575 0.459566 0.459558 0.459549 0.45954 0.459531 0.459522 0.459513 0.459504 0.459495 0.459486 0.459477 0.459468 0.459459 0.45945 0.459441 0.459432 0.459422 0.459413 0.459404 0.459395 0.459386 0.459376 0.459367 0.459358 0.459349 0.459339 0.45933 0.459321 0.459312 0.459303 0.459293 0.459284 0.459275 0.459266 0.459257 0.459248 0.459239 0.45923 0.459221 0.459212 0.459203 0.459194 0.459185 0.459176 0.459167 0.459159 0.45915 0.459141 0.459133 0.459125 0.459116 0.459108 0.4591 0.459091 0.459083 0.459075 0.459068 0.45906 0.459052 0.459044 0.459037 0.45903 0.459022 0.459015 0.459008 0.459001 0.458994 0.458988 0.458981 0.458975 0.458969 0.458963 0.458957 0.458951 0.458945 0.45894 0.458935 0.45893 0.458925 0.45892 0.458916 0.458911 0.458907 0.458904 0.4589 0.458897 0.458893 0.458891 0.458888 0.458886 0.458883 0.458882 0.45888 0.458879 0.458878 0.458877 0.458877 0.458876 0.458877 0.458877 0.458878 0.458879 0.45888 0.458881 0.458883 0.458884 0.458885 0.458886 0.453406 0.453405 0.453405 0.453404 0.453402 0.453401 0.4534 0.4534 0.453399 0.453399 0.453399 0.453399 0.453399 0.4534 0.453401 0.453402 0.453404 0.453405 0.453407 0.45341 0.453412 0.453415 0.453418 0.453421 0.453424 0.453428 0.453431 0.453435 0.45344 0.453444 0.453448 0.453453 0.453458 0.453463 0.453468 0.453473 0.453479 0.453484 0.45349 0.453496 0.453502 0.453508 0.453515 0.453521 0.453527 0.453534 0.453541 0.453548 0.453555 0.453562 0.453569 0.453576 0.453584 0.453591 0.453598 0.453606 0.453614 0.453622 0.453629 0.453637 0.453645 0.453653 0.453661 0.45367 0.453678 0.453686 0.453694 0.453703 0.453711 0.45372 0.453728 0.453737 0.453745 0.453754 0.453762 0.453771 0.45378 0.453788 0.453797 0.453806 0.453815 0.453823 0.453832 0.453841 0.45385 0.453859 0.453867 0.453876 0.453885 0.453894 0.453903 0.453912 0.45392 0.453929 0.453938 0.453947 0.453955 0.453964 0.453973 0.453982 0.45399 0.453999 0.454008 0.454016 0.454025 0.454034 0.454042 0.454051 0.45406 0.454069 0.454077 0.454086 0.454095 0.454104 0.454113 0.454122 0.454132 0.454142 0.454152 0.454163 0.454175 0.454189 0.454203 0.45422 0.45424 0.454263 0.454291 0.454326 0.454369 0.454424 0.454493 0.454584 0.454701 0.454853 0.455053 0.455317 0.455663 0.456122 0.456728 0.457531 0.458596 0.460009 0.461885 0.464376 0.467686 0.472084 0.477926 0.485683 0.495975 0.509612 0.527643 0.5514 0.582537 0.623017 0.675003 0.740574 0.82116 0.9167 1.02469 1.13966 1.25375 1.35856 1.44763 1.51801 1.57028 1.60724 1.63245 1.64923 1.66024 1.66741 1.67205 1.67506 1.67702 1.67829 1.67913 1.67968 1.68004 1.68028 1.68045 1.68056 1.68063 1.68069 1.68072 1.68075 1.68077 1.68079 1.6808 1.6808 1.68081 1.68082 1.68082 1.68082 1.68083 1.68083 1.68083 1.68083 1.68083 1.68083 1.68083 1.68084 1.68083 1.68083 1.68083 1.68083 1.68083 1.68083 1.68083 1.68083 1.68082 1.68082 1.68081 1.68081 1.6808 1.68079 1.68078 1.68076 1.68073 1.68069 1.68064 1.68057 1.68046 1.68029 1.68005 1.67969 1.67914 1.67831 1.67705 1.6751 1.67211 1.66749 1.66036 1.64941 1.63272 1.60764 1.57085 1.5188 1.44866 1.35982 1.25518 1.14116 1.02615 0.918033 0.822316 0.741538 0.675786 0.623641 0.583031 0.55179 0.527952 0.50986 0.496175 0.485848 0.478064 0.472203 0.46779 0.464469 0.46197 0.460088 0.458671 0.457603 0.456798 0.45619 0.45573 0.455383 0.455119 0.454919 0.454766 0.454649 0.454559 0.454489 0.454435 0.454392 0.454357 0.45433 0.454306 0.454287 0.454271 0.454256 0.454243 0.454231 0.454221 0.45421 0.454201 0.454191 0.454182 0.454173 0.454164 0.454156 0.454147 0.454138 0.45413 0.454121 0.454112 0.454104 0.454095 0.454087 0.454078 0.454069 0.454061 0.454052 0.454043 0.454034 0.454025 0.454017 0.454008 0.453999 0.45399 0.453981 0.453972 0.453963 0.453954 0.453945 0.453936 0.453928 0.453919 0.45391 0.453901 0.453892 0.453883 0.453874 0.453865 0.453856 0.453847 0.453838 0.453829 0.45382 0.453811 0.453802 0.453793 0.453785 0.453776 0.453767 0.453758 0.45375 0.453741 0.453733 0.453724 0.453716 0.453707 0.453699 0.45369 0.453682 0.453674 0.453666 0.453658 0.45365 0.453642 0.453634 0.453627 0.453619 0.453612 0.453604 0.453597 0.45359 0.453583 0.453576 0.453569 0.453562 0.453556 0.453549 0.453543 0.453537 0.453531 0.453525 0.453519 0.453513 0.453508 0.453503 0.453497 0.453493 0.453488 0.453483 0.453479 0.453475 0.453471 0.453467 0.453463 0.45346 0.453457 0.453454 0.453452 0.453449 0.453447 0.453445 0.453444 0.453443 0.453441 0.453441 0.45344 0.45344 0.45344 0.45344 0.453441 0.453442 0.453443 0.453444 0.453445 0.453446 0.453447 0.453448 0.449309 0.449309 0.449308 0.449307 0.449306 0.449306 0.449305 0.449304 0.449304 0.449304 0.449304 0.449304 0.449304 0.449305 0.449306 0.449308 0.449309 0.449311 0.449313 0.449315 0.449317 0.44932 0.449323 0.449326 0.449329 0.449333 0.449336 0.44934 0.449344 0.449348 0.449353 0.449357 0.449362 0.449367 0.449372 0.449377 0.449383 0.449388 0.449394 0.449399 0.449405 0.449411 0.449417 0.449424 0.44943 0.449437 0.449443 0.44945 0.449457 0.449464 0.449471 0.449478 0.449485 0.449492 0.449499 0.449507 0.449514 0.449522 0.44953 0.449537 0.449545 0.449553 0.449561 0.449569 0.449577 0.449585 0.449593 0.449601 0.449609 0.449618 0.449626 0.449634 0.449643 0.449651 0.449659 0.449668 0.449676 0.449685 0.449693 0.449702 0.44971 0.449719 0.449728 0.449736 0.449745 0.449753 0.449762 0.449771 0.449779 0.449788 0.449796 0.449805 0.449813 0.449822 0.449831 0.449839 0.449848 0.449856 0.449865 0.449873 0.449882 0.44989 0.449899 0.449907 0.449916 0.449924 0.449933 0.449941 0.449949 0.449958 0.449966 0.449975 0.449984 0.449992 0.450001 0.45001 0.450019 0.450029 0.450039 0.45005 0.450061 0.450074 0.450088 0.450104 0.450123 0.450145 0.450172 0.450204 0.450245 0.450297 0.450363 0.450448 0.450558 0.450702 0.450889 0.451136 0.451462 0.451891 0.452458 0.453209 0.454204 0.455522 0.45727 0.459588 0.462663 0.466742 0.47215 0.479318 0.488807 0.501353 0.517904 0.539665 0.568133 0.605103 0.65259 0.712621 0.786796 0.875596 0.97751 1.08838 1.20148 1.30887 1.40345 1.48097 1.54053 1.58394 1.61434 1.63502 1.64883 1.65795 1.66394 1.66787 1.67044 1.67214 1.67326 1.674 1.67449 1.67483 1.67505 1.6752 1.67531 1.67538 1.67544 1.67547 1.6755 1.67552 1.67553 1.67555 1.67555 1.67556 1.67557 1.67557 1.67557 1.67558 1.67558 1.67558 1.67558 1.67558 1.67558 1.67558 1.67558 1.67558 1.67558 1.67558 1.67558 1.67558 1.67558 1.67557 1.67557 1.67556 1.67556 1.67555 1.67554 1.67552 1.67551 1.67548 1.67544 1.67539 1.67532 1.67521 1.67506 1.67484 1.67451 1.67401 1.67328 1.67216 1.67048 1.66792 1.66401 1.65806 1.64898 1.63524 1.61466 1.58441 1.54119 1.48185 1.40457 1.31018 1.20292 1.08984 0.978902 0.876844 0.787866 0.713507 0.653308 0.605676 0.568587 0.540024 0.51819 0.501583 0.488994 0.479472 0.472281 0.466854 0.462762 0.459677 0.457351 0.455598 0.454276 0.453279 0.452526 0.451957 0.451527 0.451201 0.450953 0.450765 0.450622 0.450512 0.450427 0.450361 0.45031 0.450269 0.450236 0.45021 0.450188 0.45017 0.450154 0.45014 0.450128 0.450116 0.450106 0.450096 0.450086 0.450077 0.450068 0.45006 0.450051 0.450043 0.450034 0.450026 0.450018 0.450009 0.450001 0.449992 0.449984 0.449976 0.449967 0.449959 0.44995 0.449942 0.449933 0.449925 0.449916 0.449908 0.449899 0.44989 0.449882 0.449873 0.449864 0.449856 0.449847 0.449838 0.449829 0.449821 0.449812 0.449803 0.449794 0.449786 0.449777 0.449768 0.449759 0.449751 0.449742 0.449733 0.449724 0.449716 0.449707 0.449698 0.44969 0.449681 0.449673 0.449664 0.449656 0.449647 0.449639 0.44963 0.449622 0.449614 0.449606 0.449597 0.449589 0.449581 0.449573 0.449565 0.449558 0.44955 0.449542 0.449535 0.449527 0.44952 0.449512 0.449505 0.449498 0.449491 0.449484 0.449477 0.449471 0.449464 0.449458 0.449451 0.449445 0.449439 0.449433 0.449427 0.449422 0.449416 0.449411 0.449406 0.449401 0.449396 0.449391 0.449387 0.449383 0.449379 0.449375 0.449371 0.449368 0.449364 0.449361 0.449359 0.449356 0.449354 0.449352 0.44935 0.449348 0.449347 0.449346 0.449345 0.449344 0.449344 0.449344 0.449344 0.449345 0.449345 0.449346 0.449347 0.449348 0.449349 0.449349 0.44935 0.446223 0.446223 0.446223 0.446222 0.446221 0.446221 0.44622 0.44622 0.44622 0.44622 0.44622 0.44622 0.446221 0.446222 0.446223 0.446224 0.446226 0.446227 0.446229 0.446231 0.446234 0.446236 0.446239 0.446242 0.446246 0.446249 0.446253 0.446256 0.44626 0.446264 0.446269 0.446273 0.446278 0.446283 0.446288 0.446293 0.446298 0.446303 0.446309 0.446314 0.44632 0.446326 0.446332 0.446338 0.446344 0.446351 0.446357 0.446364 0.44637 0.446377 0.446384 0.446391 0.446398 0.446405 0.446412 0.44642 0.446427 0.446434 0.446442 0.446449 0.446457 0.446465 0.446472 0.44648 0.446488 0.446496 0.446504 0.446512 0.44652 0.446528 0.446536 0.446544 0.446552 0.446561 0.446569 0.446577 0.446585 0.446594 0.446602 0.44661 0.446619 0.446627 0.446635 0.446644 0.446652 0.446661 0.446669 0.446678 0.446686 0.446694 0.446703 0.446711 0.446719 0.446728 0.446736 0.446745 0.446753 0.446761 0.44677 0.446778 0.446786 0.446795 0.446803 0.446811 0.446819 0.446828 0.446836 0.446844 0.446852 0.446861 0.446869 0.446877 0.446886 0.446894 0.446903 0.446911 0.44692 0.44693 0.446939 0.44695 0.446961 0.446973 0.446986 0.447002 0.447019 0.44704 0.447066 0.447097 0.447135 0.447184 0.447246 0.447325 0.447428 0.447562 0.447738 0.447968 0.448271 0.448671 0.449198 0.449895 0.450817 0.452037 0.453652 0.455792 0.458624 0.462373 0.467335 0.473895 0.48256 0.493989 0.509027 0.528752 0.554508 0.587913 0.630823 0.685184 0.752705 0.834313 0.929393 1.03507 1.14594 1.2548 1.35435 1.43914 1.50675 1.55771 1.59442 1.62001 1.63744 1.64914 1.65693 1.66209 1.66551 1.66778 1.66929 1.6703 1.67098 1.67144 1.67175 1.67197 1.67212 1.67222 1.67229 1.67235 1.67238 1.67241 1.67243 1.67245 1.67246 1.67247 1.67247 1.67248 1.67248 1.67249 1.67249 1.67249 1.6725 1.6725 1.6725 1.6725 1.6725 1.6725 1.6725 1.6725 1.67249 1.67249 1.67249 1.67248 1.67248 1.67247 1.67246 1.67245 1.67244 1.67242 1.67239 1.67235 1.6723 1.67223 1.67212 1.67198 1.67176 1.67145 1.671 1.67032 1.66932 1.66781 1.66556 1.66216 1.65702 1.64927 1.63763 1.62029 1.59482 1.55827 1.50751 1.44012 1.35555 1.25616 1.14737 1.03648 0.930706 0.835469 0.753685 0.68599 0.631475 0.588433 0.554921 0.529081 0.509289 0.494201 0.482734 0.47404 0.467457 0.46248 0.458718 0.455876 0.453731 0.45211 0.450886 0.449962 0.449263 0.448735 0.448334 0.448031 0.4478 0.447625 0.44749 0.447387 0.447308 0.447246 0.447198 0.44716 0.447129 0.447104 0.447083 0.447066 0.447051 0.447037 0.447025 0.447015 0.447004 0.446995 0.446986 0.446977 0.446968 0.44696 0.446952 0.446943 0.446935 0.446927 0.446919 0.446911 0.446903 0.446894 0.446886 0.446878 0.44687 0.446862 0.446853 0.446845 0.446837 0.446828 0.44682 0.446812 0.446803 0.446795 0.446786 0.446778 0.446769 0.446761 0.446752 0.446744 0.446735 0.446727 0.446718 0.446709 0.446701 0.446692 0.446684 0.446675 0.446666 0.446658 0.446649 0.446641 0.446632 0.446624 0.446615 0.446607 0.446598 0.44659 0.446582 0.446573 0.446565 0.446557 0.446549 0.44654 0.446532 0.446524 0.446516 0.446508 0.4465 0.446492 0.446485 0.446477 0.446469 0.446462 0.446454 0.446447 0.446439 0.446432 0.446425 0.446418 0.446411 0.446404 0.446397 0.446391 0.446384 0.446378 0.446371 0.446365 0.446359 0.446353 0.446347 0.446342 0.446336 0.446331 0.446326 0.446321 0.446316 0.446311 0.446307 0.446302 0.446298 0.446294 0.44629 0.446287 0.446283 0.44628 0.446277 0.446274 0.446272 0.446269 0.446267 0.446266 0.446264 0.446263 0.446261 0.446261 0.44626 0.44626 0.446259 0.446259 0.44626 0.44626 0.446261 0.446261 0.446262 0.446262 0.446263 0.446263 0.4439 0.4439 0.4439 0.443899 0.443899 0.443899 0.443898 0.443898 0.443898 0.443898 0.443898 0.443899 0.443899 0.4439 0.443902 0.443903 0.443904 0.443906 0.443908 0.44391 0.443913 0.443915 0.443918 0.443921 0.443924 0.443928 0.443931 0.443935 0.443939 0.443943 0.443947 0.443952 0.443956 0.443961 0.443966 0.443971 0.443976 0.443981 0.443986 0.443992 0.443998 0.444003 0.444009 0.444015 0.444021 0.444028 0.444034 0.44404 0.444047 0.444054 0.44406 0.444067 0.444074 0.444081 0.444088 0.444095 0.444102 0.44411 0.444117 0.444124 0.444132 0.444139 0.444147 0.444155 0.444162 0.44417 0.444178 0.444186 0.444194 0.444202 0.444209 0.444217 0.444225 0.444234 0.444242 0.44425 0.444258 0.444266 0.444274 0.444282 0.44429 0.444299 0.444307 0.444315 0.444323 0.444332 0.44434 0.444348 0.444356 0.444365 0.444373 0.444381 0.444389 0.444398 0.444406 0.444414 0.444422 0.44443 0.444438 0.444447 0.444455 0.444463 0.444471 0.444479 0.444487 0.444495 0.444503 0.444511 0.444519 0.444527 0.444535 0.444544 0.444552 0.44456 0.444568 0.444577 0.444585 0.444595 0.444604 0.444614 0.444625 0.444636 0.444649 0.444664 0.44468 0.4447 0.444724 0.444753 0.444789 0.444835 0.444893 0.444967 0.445063 0.445188 0.44535 0.445564 0.445844 0.446214 0.446701 0.447343 0.448192 0.449313 0.450795 0.452754 0.455343 0.458762 0.463276 0.46923 0.477074 0.487392 0.500933 0.518651 0.541737 0.571638 0.610041 0.658779 0.719603 0.793764 0.881392 0.98078 1.08791 1.19666 1.29993 1.39148 1.46742 1.52677 1.57093 1.60253 1.62454 1.63958 1.64974 1.65656 1.66112 1.66418 1.66623 1.66761 1.66855 1.66919 1.66962 1.66992 1.67013 1.67028 1.67038 1.67046 1.67051 1.67055 1.67058 1.6706 1.67062 1.67063 1.67064 1.67065 1.67066 1.67066 1.67067 1.67067 1.67067 1.67067 1.67067 1.67067 1.67067 1.67067 1.67067 1.67067 1.67067 1.67066 1.67066 1.67065 1.67065 1.67064 1.67062 1.67061 1.67059 1.67056 1.67052 1.67047 1.67039 1.67029 1.67014 1.66993 1.66964 1.6692 1.66857 1.66764 1.66626 1.66422 1.66118 1.65664 1.64985 1.63975 1.62478 1.60288 1.57141 1.52744 1.46829 1.39257 1.3012 1.19804 1.08932 0.982129 0.882614 0.794824 0.720492 0.659507 0.610627 0.572107 0.542111 0.51895 0.501173 0.487587 0.477234 0.469364 0.463391 0.458862 0.455432 0.452835 0.45087 0.449384 0.448259 0.447408 0.446764 0.446276 0.445906 0.445625 0.445411 0.445248 0.445123 0.445028 0.444954 0.444896 0.444851 0.444815 0.444786 0.444762 0.444743 0.444726 0.444712 0.444699 0.444688 0.444677 0.444668 0.444659 0.44465 0.444641 0.444633 0.444625 0.444616 0.444608 0.4446 0.444592 0.444584 0.444577 0.444569 0.444561 0.444553 0.444545 0.444536 0.444528 0.44452 0.444512 0.444504 0.444496 0.444488 0.444479 0.444471 0.444463 0.444455 0.444446 0.444438 0.44443 0.444421 0.444413 0.444405 0.444396 0.444388 0.444379 0.444371 0.444363 0.444354 0.444346 0.444337 0.444329 0.444321 0.444312 0.444304 0.444296 0.444287 0.444279 0.444271 0.444263 0.444254 0.444246 0.444238 0.44423 0.444222 0.444214 0.444206 0.444198 0.44419 0.444182 0.444174 0.444167 0.444159 0.444151 0.444144 0.444137 0.444129 0.444122 0.444115 0.444108 0.444101 0.444094 0.444087 0.44408 0.444073 0.444067 0.44406 0.444054 0.444048 0.444042 0.444036 0.44403 0.444025 0.444019 0.444014 0.444008 0.444003 0.443998 0.443993 0.443989 0.443984 0.44398 0.443976 0.443972 0.443968 0.443965 0.443961 0.443958 0.443955 0.443953 0.44395 0.443948 0.443946 0.443944 0.443942 0.443941 0.443939 0.443939 0.443938 0.443937 0.443937 0.443937 0.443937 0.443937 0.443938 0.443938 0.443938 0.443939 0.443939 0.443939 0.442151 0.442151 0.442151 0.442151 0.442151 0.44215 0.44215 0.44215 0.44215 0.442151 0.442151 0.442152 0.442152 0.442153 0.442155 0.442156 0.442158 0.442159 0.442161 0.442164 0.442166 0.442169 0.442171 0.442174 0.442177 0.442181 0.442184 0.442188 0.442192 0.442196 0.4422 0.442204 0.442209 0.442213 0.442218 0.442223 0.442228 0.442233 0.442239 0.442244 0.44225 0.442255 0.442261 0.442267 0.442273 0.442279 0.442285 0.442292 0.442298 0.442305 0.442311 0.442318 0.442325 0.442332 0.442339 0.442346 0.442353 0.44236 0.442367 0.442374 0.442382 0.442389 0.442397 0.442404 0.442412 0.442419 0.442427 0.442435 0.442442 0.44245 0.442458 0.442466 0.442474 0.442482 0.44249 0.442498 0.442505 0.442514 0.442522 0.44253 0.442538 0.442546 0.442554 0.442562 0.44257 0.442578 0.442586 0.442594 0.442602 0.44261 0.442618 0.442627 0.442635 0.442643 0.442651 0.442659 0.442667 0.442675 0.442683 0.442691 0.442699 0.442707 0.442715 0.442723 0.442731 0.442738 0.442746 0.442754 0.442762 0.44277 0.442778 0.442786 0.442794 0.442802 0.44281 0.442818 0.442827 0.442836 0.442845 0.442854 0.442864 0.442876 0.442888 0.442902 0.442918 0.442937 0.442959 0.442986 0.44302 0.443062 0.443116 0.443185 0.443274 0.443389 0.44354 0.443737 0.443995 0.444334 0.444781 0.44537 0.446146 0.44717 0.448521 0.450302 0.45265 0.455745 0.459821 0.465183 0.472228 0.48147 0.493566 0.509352 0.529875 0.556415 0.590487 0.633787 0.68804 0.754698 0.834455 0.926608 1.02847 1.1352 1.2404 1.33751 1.42145 1.48968 1.54226 1.58105 1.60874 1.62806 1.64132 1.65035 1.65646 1.66059 1.66339 1.6653 1.66659 1.66748 1.66809 1.66852 1.66882 1.66903 1.66918 1.66928 1.66936 1.66942 1.66946 1.66949 1.66951 1.66953 1.66955 1.66956 1.66957 1.66957 1.66958 1.66958 1.66958 1.66959 1.66959 1.66959 1.66959 1.66959 1.66959 1.66958 1.66958 1.66957 1.66957 1.66956 1.66955 1.66954 1.66952 1.6695 1.66946 1.66942 1.66937 1.66929 1.66918 1.66904 1.66883 1.66853 1.66811 1.6675 1.66661 1.66532 1.66343 1.66065 1.65653 1.65045 1.64147 1.62827 1.60905 1.58148 1.54285 1.49046 1.42244 1.33869 1.24172 1.13658 1.02983 0.927874 0.835579 0.755659 0.688838 0.634438 0.591011 0.556834 0.53021 0.509621 0.493784 0.481648 0.472376 0.465308 0.459929 0.45584 0.452735 0.450379 0.448592 0.447238 0.446211 0.445433 0.444843 0.444395 0.444055 0.443796 0.443599 0.443449 0.443333 0.443245 0.443176 0.443122 0.44308 0.443047 0.44302 0.442998 0.442979 0.442963 0.44295 0.442938 0.442927 0.442917 0.442907 0.442898 0.44289 0.442881 0.442873 0.442865 0.442857 0.44285 0.442842 0.442834 0.442826 0.442818 0.442811 0.442803 0.442795 0.442787 0.442779 0.442771 0.442763 0.442755 0.442747 0.442739 0.442731 0.442723 0.442715 0.442707 0.442699 0.442691 0.442683 0.442674 0.442666 0.442658 0.44265 0.442642 0.442633 0.442625 0.442617 0.442609 0.4426 0.442592 0.442584 0.442576 0.442567 0.442559 0.442551 0.442543 0.442535 0.442526 0.442518 0.44251 0.442502 0.442494 0.442486 0.442478 0.44247 0.442462 0.442454 0.442447 0.442439 0.442431 0.442424 0.442416 0.442408 0.442401 0.442394 0.442386 0.442379 0.442372 0.442365 0.442358 0.442351 0.442344 0.442337 0.442331 0.442324 0.442318 0.442312 0.442305 0.442299 0.442293 0.442288 0.442282 0.442276 0.442271 0.442265 0.44226 0.442255 0.44225 0.442246 0.442241 0.442237 0.442232 0.442228 0.442225 0.442221 0.442217 0.442214 0.442211 0.442208 0.442205 0.442203 0.4422 0.442198 0.442196 0.442195 0.442193 0.442192 0.442191 0.44219 0.442189 0.442189 0.442189 0.442189 0.442189 0.442189 0.442189 0.442189 0.44219 0.44219 0.44219 0.440835 0.440835 0.440835 0.440835 0.440835 0.440835 0.440835 0.440835 0.440835 0.440836 0.440836 0.440837 0.440838 0.440839 0.44084 0.440842 0.440843 0.440845 0.440847 0.440849 0.440852 0.440854 