# vtk DataFile Version 3.0
Immiscible displacement
ASCII
DATASET RECTILINEAR_GRID
DIMENSIONS 200 200 1
X_COORDINATES 200 double
1 2 3 4 5 6 7 8 9 10 11 12 13 14 15 16 17 18 19 20 21 22 23 24 25 26 27 28 29 30 31 32 33 34 35 36 37 38 39 40 41 42 43 44 45 46 47 48 49 50 51 52 53 54 55 56 57 58 59 60 61 62 63 64 65 66 67 68 69 70 71 72 73 74 75 76 77 78 79 80 81 82 83 84 85 86 87 88 89 90 91 92 93 94 95 96 97 98 99 100 101 102 103 104 105 106 107 108 109 110 111 112 113 114 115 116 117 118 119 120 121 122 123 124 125 126 127 128 129 130 131 132 133 134 135 136 137 138 139 140 141 142 143 144 145 146 147 148 149 150 151 152 153 154 155 156 157 158 159 160 161 162 163 164 165 166 167 168 169 170 171 172 173 174 175 176 177 178 179 180 181 182 183 184 185 186 187 188 189 190 191 192 193 194 195 196 197 198 199 200 
Y_COORDINATES 200 double
1 2 3 4 5 6 7 8 9 10 11 12 13 14 15 16 17 18 19 20 21 22 23 24 25 26 27 28 29 30 31 32 33 34 35 36 37 38 39 40 41 42 43 44 45 46 47 48 49 50 51 52 53 54 55 56 57 58 59 60 61 62 63 64 65 66 67 68 69 70 71 72 73 74 75 76 77 78 79 80 81 82 83 84 85 86 87 88 89 90 91 92 93 94 95 96 97 98 99 100 101 102 103 104 105 106 107 108 109 110 111 112 113 114 115 116 117 118 119 120 121 122 123 124 125 126 127 128 129 130 131 132 133 134 135 136 137 138 139 140 141 142 143 144 145 146 147 148 149 150 151 152 153 154 155 156 157 158 159 160 161 162 163 164 165 166 167 168 169 170 171 172 173 174 175 176 177 178 179 180 181 182 183 184 185 186 187 188 189 190 191 192 193 194 195 196 197 198 199 200 
Z_COORDINATES 1 double
0
POINT_DATA 40000
SCALARS rho double 1
LOOKUP_TABLE default
0.445674 0.445542 0.445363 0.445174 0.444994 0.44483 0.444684 0.444556 0.444443 0.444343 0.444252 0.44417 0.444093 0.444023 0.443959 0.443905 0.443866 0.443852 0.443873 0.44395 0.444107 0.44438 0.444814 0.445475 0.446447 0.447848 0.449826 0.452593 0.456415 0.461664 0.468817 0.478522 0.49162 0.509222 0.53275 0.564004 0.60515 0.658645 0.726892 0.811626 0.912839 1.02761 1.14941 1.2689 1.37643 1.46518 1.53281 1.58107 1.61381 1.63533 1.64924 1.65822 1.66411 1.66809 1.67091 1.67303 1.67473 1.6762 1.67751 1.67874 1.67991 1.68106 1.68217 1.68328 1.68436 1.68543 1.68646 1.68748 1.68845 1.68941 1.69032 1.69119 1.69202 1.69281 1.69355 1.69425 1.6949 1.6955 1.69606 1.69657 1.69704 1.69747 1.69785 1.6982 1.69851 1.69879 1.69903 1.69925 1.69944 1.69961 1.69974 1.69987 1.69997 1.70006 1.70012 1.70018 1.70022 1.70026 1.70027 1.70028 1.70027 1.70026 1.70023 1.70019 1.70013 1.70007 1.69998 1.69988 1.69976 1.69962 1.69945 1.69927 1.69905 1.69881 1.69853 1.69823 1.69787 1.69749 1.69706 1.6966 1.69608 1.69553 1.69492 1.69428 1.69358 1.69284 1.69204 1.69121 1.69033 1.68942 1.68847 1.68748 1.68646 1.68542 1.68435 1.68327 1.68216 1.68103 1.67988 1.6787 1.67746 1.67614 1.67466 1.67295 1.6708 1.66796 1.66395 1.65802 1.64895 1.63493 1.61323 1.58023 1.53164 1.46359 1.37441 1.26653 1.14684 1.02502 0.910388 0.80941 0.724944 0.656955 0.603685 0.562724 0.531618 0.508209 0.490702 0.477681 0.468042 0.460947 0.455751 0.451979 0.449263 0.447334 0.445984 0.445064 0.444454 0.444073 0.443854 0.443751 0.443726 0.443756 0.443821 0.443908 0.444006 0.444112 0.444219 0.444328 0.444437 0.444548 0.444662 0.444783 0.444912 0.445054 0.44521 0.445382 0.445567 0.445759 0.44594 0.446072 0.445505 0.445405 0.445253 0.445085 0.444919 0.444765 0.444626 0.444503 0.444393 0.444297 0.444208 0.444128 0.444052 0.443984 0.44392 0.443869 0.44383 0.443818 0.443839 0.443918 0.444074 0.444348 0.44478 0.445441 0.446408 0.447804 0.449772 0.452526 0.456328 0.46155 0.468663 0.478315 0.491336 0.508838 0.532226 0.563299 0.604208 0.657407 0.7253 0.80965 0.910495 1.025 1.14671 1.26635 1.37423 1.46344 1.53155 1.58022 1.61327 1.63501 1.64905 1.65813 1.66407 1.66809 1.67092 1.67306 1.67477 1.67624 1.67755 1.67878 1.67995 1.6811 1.68221 1.68332 1.68439 1.68546 1.68649 1.6875 1.68847 1.68943 1.69033 1.6912 1.69202 1.69281 1.69354 1.69424 1.69488 1.69549 1.69604 1.69656 1.69701 1.69745 1.69782 1.69818 1.69848 1.69876 1.699 1.69923 1.69941 1.69958 1.69971 1.69985 1.69994 1.70003 1.7001 1.70016 1.70019 1.70023 1.70024 1.70026 1.70024 1.70024 1.7002 1.70017 1.7001 1.70004 1.69995 1.69986 1.69973 1.6996 1.69942 1.69925 1.69902 1.69879 1.6985 1.6982 1.69785 1.69747 1.69704 1.69658 1.69606 1.69552 1.69491 1.69427 1.69357 1.69284 1.69204 1.69122 1.69034 1.68944 1.68848 1.68751 1.68649 1.68546 1.68438 1.6833 1.68219 1.68107 1.67992 1.67874 1.67749 1.67618 1.67469 1.67298 1.67082 1.66796 1.66391 1.65792 1.64877 1.6346 1.61269 1.57937 1.53036 1.46183 1.37219 1.26395 1.14412 1.0224 0.908039 0.807434 0.723356 0.655723 0.60275 0.562028 0.531104 0.507834 0.490427 0.477483 0.467897 0.460842 0.455673 0.451922 0.449218 0.447299 0.445954 0.445038 0.444428 0.444049 0.443828 0.443725 0.443698 0.443727 0.443789 0.443875 0.443971 0.444075 0.44418 0.444287 0.444394 0.444503 0.444614 0.444733 0.444858 0.444995 0.445144 0.445306 0.445476 0.445648 0.445802 0.445903 0.44525 0.445178 0.44506 0.444921 0.444778 0.444643 0.444517 0.444404 0.444302 0.444212 0.444127 0.444051 0.443979 0.443914 0.443853 0.443804 0.443768 0.443758 0.443781 0.443862 0.444018 0.444292 0.444721 0.445377 0.446336 0.44772 0.449669 0.452395 0.456157 0.461323 0.468358 0.477902 0.490775 0.508076 0.531195 0.56191 0.602356 0.654974 0.722175 0.805767 0.905883 1.01984 1.14136 1.26125 1.36979 1.45992 1.52897 1.57845 1.61212 1.6343 1.64864 1.6579 1.66395 1.66804 1.67092 1.67308 1.6748 1.67628 1.6776 1.67883 1.68 1.68115 1.68226 1.68337 1.68444 1.6855 1.68652 1.68753 1.6885 1.68944 1.69034 1.69121 1.69202 1.69281 1.69354 1.69423 1.69487 1.69547 1.69601 1.69653 1.69698 1.69742 1.69779 1.69814 1.69845 1.69873 1.69897 1.69919 1.69937 1.69955 1.69968 1.69981 1.69991 1.7 1.70007 1.70013 1.70016 1.7002 1.70021 1.70023 1.70022 1.70021 1.70017 1.70014 1.70007 1.70001 1.69992 1.69983 1.6997 1.69956 1.69939 1.69921 1.69899 1.69875 1.69847 1.69817 1.69782 1.69744 1.69701 1.69656 1.69604 1.6955 1.69489 1.69426 1.69356 1.69283 1.69205 1.69123 1.69036 1.68946 1.68851 1.68754 1.68652 1.68549 1.68443 1.68335 1.68224 1.68112 1.67997 1.67879 1.67755 1.67622 1.67473 1.673 1.67081 1.66791 1.66379 1.65768 1.64834 1.63388 1.61152 1.57757 1.52774 1.45826 1.36771 1.25881 1.13874 1.01722 0.90342 0.803553 0.720239 0.653301 0.60091 0.560652 0.530087 0.507087 0.489882 0.477086 0.467607 0.460631 0.455518 0.451806 0.449129 0.447229 0.445896 0.444987 0.444382 0.444004 0.443783 0.443678 0.443649 0.443676 0.443735 0.443817 0.443909 0.44401 0.444111 0.444215 0.444317 0.444423 0.444528 0.44464 0.444758 0.444885 0.445019 0.445164 0.445311 0.445453 0.445573 0.445646 0.444948 0.444898 0.444811 0.444703 0.444587 0.444474 0.444366 0.444268 0.444177 0.444095 0.444018 0.443948 0.443881 0.443821 0.443764 0.443719 0.443686 0.443679 0.443704 0.443787 0.443943 0.444215 0.44464 0.445289 0.446235 0.447598 0.449518 0.452203 0.455905 0.460988 0.467907 0.477292 0.489949 0.506955 0.529679 0.559872 0.599641 0.65141 0.717596 0.800068 0.899097 1.01222 1.1334 1.25362 1.3631 1.45455 1.52499 1.57569 1.61031 1.63316 1.64794 1.65749 1.66373 1.66793 1.67087 1.67308 1.67482 1.67632 1.67764 1.67888 1.68005 1.6812 1.68231 1.68341 1.68448 1.68553 1.68655 1.68756 1.68852 1.68946 1.69035 1.69122 1.69203 1.69281 1.69353 1.69422 1.69485 1.69545 1.69599 1.6965 1.69696 1.69739 1.69776 1.69811 1.69841 1.6987 1.69894 1.69916 1.69935 1.69952 1.69966 1.69979 1.69988 1.69998 1.70004 1.70011 1.70014 1.70018 1.70019 1.70021 1.7002 1.70019 1.70015 1.70012 1.70005 1.69999 1.6999 1.6998 1.69967 1.69954 1.69936 1.69918 1.69896 1.69872 1.69844 1.69814 1.69779 1.69741 1.69698 1.69653 1.69602 1.69548 1.69488 1.69424 1.69355 1.69283 1.69205 1.69123 1.69037 1.68947 1.68853 1.68756 1.68655 1.68553 1.68447 1.68339 1.68229 1.68117 1.68002 1.67884 1.67759 1.67625 1.67475 1.67299 1.67077 1.6678 1.66356 1.65727 1.64763 1.63272 1.60968 1.57477 1.52371 1.45284 1.36096 1.25113 1.13075 1.00959 0.896631 0.797861 0.715673 0.649752 0.598213 0.558633 0.528589 0.505985 0.489074 0.476495 0.467176 0.460315 0.455285 0.451633 0.448998 0.447127 0.445812 0.444916 0.444318 0.443943 0.443723 0.443617 0.443585 0.443609 0.443663 0.443742 0.443829 0.443925 0.444021 0.444119 0.444215 0.444314 0.444411 0.444514 0.44462 0.444732 0.444849 0.444971 0.445091 0.445203 0.445292 0.445343 0.444624 0.44459 0.444529 0.44445 0.444361 0.444272 0.444184 0.444103 0.444025 0.443955 0.443887 0.443825 0.443764 0.44371 0.443658 0.443618 0.443589 0.443586 0.443614 0.443697 0.443853 0.444122 0.444541 0.445178 0.446106 0.447444 0.449324 0.451953 0.455577 0.460551 0.467319 0.476498 0.488873 0.505499 0.527713 0.557232 0.596125 0.646795 0.711663 0.792668 0.890255 1.00224 1.12291 1.24347 1.35413 1.44727 1.51954 1.57186 1.60776 1.63153 1.64693 1.65688 1.66337 1.66773 1.67077 1.67303 1.67481 1.67633 1.67766 1.67891 1.68008 1.68123 1.68234 1.68344 1.6845 1.68556 1.68657 1.68758 1.68853 1.68947 1.69035 1.69122 1.69202 1.6928 1.69352 1.6942 1.69483 1.69543 1.69597 1.69648 1.69693 1.69736 1.69774 1.69809 1.69839 1.69868 1.69892 1.69914 1.69933 1.6995 1.69964 1.69977 1.69987 1.69997 1.70003 1.7001 1.70014 1.70018 1.70019 1.7002 1.70019 1.70018 1.70014 1.70011 1.70004 1.69998 1.69988 1.69979 1.69966 1.69952 1.69935 1.69916 1.69894 1.6987 1.69842 1.69811 1.69776 1.69739 1.69696 1.69651 1.696 1.69546 1.69486 1.69423 1.69354 1.69282 1.69204 1.69123 1.69037 1.68948 1.68854 1.68758 1.68657 1.68555 1.68449 1.68342 1.68232 1.6812 1.68005 1.67886 1.67761 1.67626 1.67474 1.67294 1.67066 1.66759 1.66319 1.65665 1.64661 1.63106 1.60709 1.5709 1.51819 1.44549 1.35191 1.24093 1.12022 0.999592 0.88779 0.790473 0.709757 0.645158 0.594719 0.556013 0.526644 0.50455 0.488019 0.475722 0.466609 0.459899 0.454978 0.451404 0.448825 0.446992 0.445704 0.444825 0.444237 0.443869 0.44365 0.443544 0.443509 0.44353 0.443579 0.443653 0.443734 0.443824 0.443913 0.444005 0.444093 0.444183 0.444271 0.444362 0.444453 0.444549 0.444646 0.444744 0.444837 0.44492 0.444982 0.445017 0.444291 0.444271 0.444231 0.444177 0.444113 0.444048 0.44398 0.443916 0.443854 0.443796 0.443739 0.443687 0.443634 0.443587 0.443541 0.443507 0.443482 0.443483 0.443513 0.443597 0.443751 0.444016 0.444426 0.445049 0.445954 0.447258 0.44909 0.451651 0.455179 0.46002 0.466605 0.475534 0.487569 0.503737 0.525336 0.554044 0.591883 0.641224 0.704491 0.7837 0.879494 0.990025 1.10997 1.23083 1.34283 1.43801 1.51253 1.56689 1.60442 1.62936 1.64556 1.65604 1.66286 1.66742 1.67059 1.67293 1.67476 1.6763 1.67765 1.67891 1.68009 1.68124 1.68235 1.68345 1.68451 1.68556 1.68658 1.68758 1.68853 1.68946 1.69035 1.69121 1.69201 1.69278 1.6935 1.69419 1.69481 1.69541 1.69595 1.69646 1.69692 1.69735 1.69772 1.69808 1.69838 1.69867 1.69891 1.69914 1.69933 1.6995 1.69964 1.69978 1.69988 1.69998 1.70005 1.70011 1.70015 1.70019 1.7002 1.70022 1.7002 1.7002 1.70016 1.70012 1.70005 1.69999 1.69989 1.69979 1.69966 1.69952 1.69934 1.69916 1.69893 1.69869 1.6984 1.6981 1.69775 1.69737 1.69694 1.69649 1.69598 1.69544 1.69484 1.69421 1.69352 1.69281 1.69203 1.69122 1.69036 1.68948 1.68854 1.68758 1.68658 1.68556 1.6845 1.68343 1.68233 1.68121 1.68005 1.67886 1.6776 1.67624 1.67468 1.67284 1.67048 1.66728 1.66267 1.65579 1.64522 1.62887 1.6037 1.56587 1.51111 1.43615 1.34054 1.22823 1.10724 0.987361 0.877036 0.781524 0.702609 0.639612 0.590502 0.552849 0.524291 0.50281 0.486737 0.47478 0.465917 0.459389 0.454601 0.451124 0.448612 0.446828 0.445573 0.444716 0.444142 0.443782 0.443567 0.443461 0.443425 0.443442 0.443487 0.443555 0.44363 0.443713 0.443794 0.443878 0.443957 0.444037 0.444113 0.444191 0.444267 0.444345 0.44442 0.444495 0.444563 0.444621 0.444662 0.444684 0.443961 0.443951 0.443928 0.443896 0.443855 0.44381 0.443763 0.443717 0.44367 0.443626 0.44358 0.443538 0.443494 0.443455 0.443416 0.443388 0.443368 0.443372 0.443404 0.443489 0.443641 0.443899 0.444298 0.444903 0.445781 0.447045 0.44882 0.4513 0.454716 0.459403 0.465777 0.474418 0.486062 0.501702 0.522596 0.550369 0.586996 0.634802 0.696208 0.773313 0.866969 0.975706 1.09467 1.21573 1.32917 1.42669 1.50385 1.56068 1.60019 1.62659 1.6438 1.65493 1.66217 1.667 1.67033 1.67277 1.67466 1.67624 1.67761 1.67888 1.68007 1.68123 1.68234 1.68344 1.6845 1.68555 1.68656 1.68756 1.68851 1.68945 1.69033 1.69119 1.69199 1.69276 1.69348 1.69417 1.69479 1.69539 1.69593 1.69645 1.6969 1.69734 1.69771 1.69807 1.69838 1.69867 1.69892 1.69915 1.69934 1.69952 1.69966 1.6998 1.6999 1.70001 1.70007 1.70014 1.70018 1.70022 1.70024 1.70025 1.70024 1.70023 1.70019 1.70015 1.70008 1.70002 1.69992 1.69981 1.69968 1.69954 1.69936 1.69917 1.69894 1.69869 1.6984 1.6981 1.69774 1.69736 1.69693 1.69647 1.69596 1.69542 1.69482 1.69419 1.6935 1.69278 1.69201 1.6912 1.69034 1.68946 1.68852 1.68756 1.68656 1.68554 1.68448 1.68342 1.68231 1.68119 1.68003 1.67883 1.67755 1.67617 1.67458 1.67267 1.67021 1.66685 1.66197 1.65467 1.64342 1.62606 1.59942 1.55959 1.50235 1.42474 1.3268 1.21308 1.09191 0.973036 0.864526 0.771161 0.694356 0.633219 0.585642 0.5492 0.521574 0.500798 0.485252 0.473685 0.46511 0.458794 0.454161 0.450795 0.448364 0.446636 0.445421 0.444591 0.444035 0.443685 0.443475 0.443372 0.443334 0.443348 0.443388 0.44345 0.443519 0.443594 0.443668 0.443742 0.443811 0.44388 0.443944 0.444008 0.444068 0.444128 0.444183 0.444236 0.444281 0.444318 0.444342 0.444353 0.44364 0.443638 0.44363 0.443615 0.443594 0.443569 0.44354 0.443511 0.443479 0.443448 0.443415 0.443383 0.443349 0.443318 0.443286 0.443264 0.443249 0.443257 0.443291 0.443375 0.443523 0.443774 0.444159 0.444742 0.445589 0.446807 0.448517 0.450907 0.454197 0.458711 0.464849 0.473168 0.484377 0.49943 0.519539 0.546274 0.581548 0.627639 0.686954 0.761666 0.852851 0.959442 1.07712 1.19821 1.31311 1.4132 1.49339 1.5531 1.59498 1.62314 1.64157 1.65352 1.66128 1.66643 1.66997 1.67254 1.67451 1.67613 1.67753 1.67882 1.68002 1.68118 1.68229 1.68339 1.68446 1.68551 1.68653 1.68752 1.68848 1.68941 1.69029 1.69115 1.69196 1.69273 1.69345 1.69414 1.69477 1.69537 1.69592 1.69644 1.6969 1.69733 1.69772 1.69808 1.69839 1.69869 1.69894 1.69917 1.69937 1.69955 1.6997 1.69984 1.69995 1.70005 1.70012 1.7002 1.70024 1.70028 1.70029 1.70031 1.70029 1.70028 1.70024 1.7002 1.70013 1.70006 1.69996 1.69986 1.69972 1.69957 1.69939 1.69919 1.69896 1.69871 1.69841 1.6981 1.69774 1.69736 1.69692 1.69646 1.69594 1.6954 1.6948 1.69416 1.69347 1.69275 1.69198 1.69117 1.69031 1.68942 1.68848 1.68752 1.68652 1.6855 1.68444 1.68337 1.68227 1.68114 1.67997 1.67877 1.67747 1.67606 1.67442 1.67244 1.66984 1.66627 1.66107 1.65323 1.64117 1.62257 1.59415 1.55193 1.4918 1.41115 1.31066 1.19549 1.07433 0.956776 0.85043 0.759546 0.685136 0.626089 0.580224 0.545132 0.518542 0.498549 0.483588 0.472457 0.464203 0.458124 0.453663 0.450423 0.448083 0.44642 0.445251 0.444452 0.443917 0.44358 0.443377 0.443276 0.443239 0.44325 0.443286 0.443342 0.443404 0.443472 0.443536 0.443601 0.44366 0.443717 0.443769 0.443818 0.443863 0.443905 0.443943 0.443976 0.444002 0.44402 0.44403 0.444033 0.443334 0.443339 0.443342 0.443342 0.443337 0.443329 0.443317 0.443303 0.443286 0.443269 0.443247 0.443226 0.443201 0.443178 0.443154 0.443137 0.443127 0.443138 0.443174 0.443257 0.4434 0.443641 0.444011 0.44457 0.445381 0.446548 0.448187 0.450477 0.453629 0.457955 0.463835 0.471805 0.482541 0.496958 0.516216 0.541826 0.575631 0.619851 0.676872 0.748931 0.837324 0.94141 1.05745 1.17832 1.29463 1.39744 1.481 1.54401 1.58866 1.61892 1.63882 1.65175 1.66015 1.66571 1.6695 1.67222 1.67429 1.67597 1.67741 1.67872 1.67993 1.6811 1.68222 1.68333 1.68439 1.68545 1.68646 1.68746 1.68842 1.68936 1.69024 1.69111 1.69191 1.69269 1.69342 1.69411 1.69475 1.69535 1.6959 1.69642 1.69689 1.69733 1.69772 1.69809 1.69841 1.69871 1.69897 1.69921 1.69941 1.6996 1.69975 1.6999 1.70001 1.70011 1.70019 1.70026 1.70031 1.70035 1.70036 1.70038 1.70037 1.70035 1.70031 1.70027 1.7002 1.70012 1.70002 1.69991 1.69977 1.69961 1.69943 1.69923 1.69899 1.69873 1.69843 1.69811 1.69775 1.69736 1.69692 1.69645 1.69593 1.69538 1.69477 1.69413 1.69344 1.69271 1.69193 1.69112 1.69026 1.68936 1.68842 1.68746 1.68646 1.68544 1.68438 1.6833 1.68219 1.68106 1.67988 1.67866 1.67734 1.67589 1.6742 1.67211 1.66936 1.66554 1.65992 1.65144 1.63838 1.61829 1.58777 1.54275 1.47931 1.39528 1.29208 1.17555 1.05464 0.938755 0.834934 0.746849 0.675092 0.618337 0.574339 0.540712 0.515245 0.4961 0.481774 0.471115 0.463211 0.457388 0.453116 0.450014 0.447773 0.446183 0.445064 0.444301 0.443789 0.443467 0.443274 0.443177 0.44314 0.443149 0.443181 0.443232 0.443287 0.443347 0.443403 0.443459 0.443507 0.443553 0.443592 0.443628 0.443658 0.443684 0.443704 0.443721 0.44373 0.443734 0.443732 0.443729 0.443046 0.443056 0.443068 0.44308 0.443089 0.443096 0.443098 0.443099 0.443095 0.44309 0.44308 0.443069 0.443053 0.443038 0.443021 0.443011 0.443006 0.443019 0.443055 0.443136 0.443274 0.443504 0.443856 0.444389 0.445161 0.446272 0.447834 0.450016 0.453021 0.457145 0.462751 0.470349 0.480582 0.494324 0.512679 0.537091 0.569333 0.611554 0.666108 0.735282 0.820584 0.921798 1.03581 1.15613 1.27368 1.37929 1.46652 1.53324 1.58109 1.61381 1.63546 1.64957 1.65874 1.6648 1.66889 1.67181 1.674 1.67575 1.67724 1.67858 1.67981 1.68099 1.68212 1.68323 1.6843 1.68536 1.68638 1.68738 1.68834 1.68928 1.69017 1.69104 1.69186 1.69264 1.69337 1.69407 1.69471 1.69533 1.69588 1.69641 1.69689 1.69734 1.69773 1.69811 1.69844 1.69874 1.69901 1.69925 1.69946 1.69966 1.69982 1.69997 1.70008 1.70019 1.70027 1.70035 1.7004 1.70044 1.70046 1.70047 1.70046 1.70044 1.7004 1.70036 1.70028 1.7002 1.7001 1.69998 1.69983 1.69968 1.69948 1.69927 1.69903 1.69877 1.69846 1.69813 1.69776 1.69736 1.69691 1.69644 1.69591 1.69535 1.69474 1.69409 1.69339 1.69266 1.69187 1.69105 1.69019 1.68929 1.68835 1.68738 1.68637 1.68534 1.68428 1.6832 1.68208 1.68095 1.67976 1.67852 1.67717 1.67567 1.6739 1.6717 1.66875 1.66461 1.6585 1.64923 1.63498 1.61312 1.58012 1.53188 1.46471 1.37703 1.27105 1.15331 1.033 0.919166 0.818233 0.733246 0.664372 0.61008 0.568075 0.536007 0.511733 0.493489 0.479837 0.469679 0.462146 0.456598 0.452528 0.449573 0.44744 0.445927 0.444864 0.444139 0.443654 0.44335 0.443167 0.443075 0.44304 0.443048 0.443076 0.443122 0.443171 0.443224 0.443271 0.443317 0.443356 0.44339 0.443417 0.443441 0.443457 0.443469 0.443474 0.443476 0.443471 0.443463 0.443452 0.443444 0.442778 0.442792 0.442812 0.442834 0.442854 0.442873 0.442889 0.442902 0.44291 0.442916 0.442916 0.442915 0.442908 0.442901 0.442891 0.442886 0.442885 0.442901 0.442937 0.443015 0.443146 0.443364 0.443696 0.4442 0.444931 0.445983 0.447462 0.449531 0.452381 0.456293 0.461612 0.46882 0.478528 0.491564 0.508976 0.532137 0.562743 0.602864 0.654809 0.720899 0.802832 0.900815 1.01238 1.13175 1.25027 1.35866 1.44977 1.5206 1.57209 1.60767 1.63139 1.64692 1.65701 1.66366 1.66814 1.6713 1.67362 1.67547 1.67702 1.67839 1.67964 1.68084 1.68198 1.68309 1.68417 1.68524 1.68626 1.68727 1.68824 1.68919 1.69009 1.69096 1.69178 1.69257 1.69331 1.69402 1.69467 1.69529 1.69586 1.6964 1.69688 1.69734 1.69775 1.69813 1.69846 1.69878 1.69905 1.69931 1.69952 1.69973 1.69989 1.70005 1.70017 1.70028 1.70037 1.70045 1.7005 1.70054 1.70056 1.70058 1.70056 1.70055 1.7005 1.70045 1.70038 1.7003 1.70018 1.70006 1.69991 1.69974 1.69954 1.69933 1.69907 1.6988 1.69849 1.69815 1.69777 1.69736 1.69691 1.69642 1.69588 1.69532 1.69469 1.69404 1.69333 1.69259 1.6918 1.69097 1.69009 1.68919 1.68824 1.68727 1.68626 1.68522 1.68415 1.68307 1.68194 1.6808 1.67959 1.67833 1.67694 1.67539 1.67352 1.67117 1.66799 1.66346 1.65675 1.64655 1.63087 1.60692 1.57103 1.51913 1.44784 1.35629 1.24756 1.12889 1.00957 0.898215 0.800529 0.718913 0.65312 0.601431 0.56152 0.531083 0.508055 0.490751 0.477804 0.46817 0.461026 0.455765 0.451907 0.449107 0.447088 0.445657 0.444653 0.44397 0.443514 0.443229 0.443057 0.442973 0.44294 0.442947 0.442973 0.443014 0.443057 0.443102 0.443142 0.443179 0.443208 0.443232 0.443248 0.443259 0.443263 0.443263 0.443255 0.443244 0.443228 0.443211 0.443193 0.44318 0.442533 0.442549 0.442575 0.442605 0.442635 0.442664 0.44269 0.442714 0.442733 0.442749 0.442759 0.442767 0.442768 0.442768 0.442764 0.442764 0.442767 0.442785 0.442821 0.442894 0.443017 0.443222 0.443534 0.444007 0.444693 0.445684 0.447078 0.449028 0.451718 0.45541 0.460432 0.467238 0.476405 0.488714 0.505155 0.527029 0.555945 0.593892 0.643117 0.705957 0.784276 0.878679 0.987354 1.10529 1.22442 1.33543 1.43057 1.50586 1.56146 1.60034 1.62649 1.64369 1.6549 1.66227 1.66721 1.67065 1.67316 1.67513 1.67674 1.67815 1.67943 1.68065 1.6818 1.68293 1.68402 1.68509 1.68612 1.68714 1.68811 1.68907 1.68997 1.69086 1.69169 1.69249 1.69324 1.69395 1.69462 1.69525 1.69583 1.69638 1.69687 1.69734 1.69776 1.69815 1.6985 1.69882 1.69911 1.69937 1.69959 1.69981 1.69998 1.70014 1.70027 1.70039 1.70048 1.70056 1.70061 1.70066 1.70068 1.70069 1.70068 1.70066 1.70062 1.70057 1.70049 1.7004 1.70028 1.70015 1.69999 1.69982 1.69961 1.69939 1.69913 1.69885 1.69852 1.69818 1.69778 1.69737 1.6969 1.6964 1.69585 1.69527 1.69464 1.69398 1.69326 1.69251 1.6917 1.69087 1.68998 1.68907 1.68811 1.68713 1.68611 1.68507 1.684 1.6829 1.68177 1.68061 1.67938 1.67809 1.67666 1.67504 1.67306 1.67052 1.66704 1.66206 1.65461 1.64328 1.62591 1.59951 1.56029 1.50428 1.42852 1.33296 1.22164 1.10241 0.984564 0.876124 0.782029 0.704028 0.64148 0.592502 0.554758 0.526004 0.50426 0.487924 0.475701 0.466607 0.459863 0.454899 0.45126 0.448622 0.446721 0.445376 0.444434 0.443795 0.44337 0.443105 0.442947 0.44287 0.442841 0.442848 0.442872 0.442909 0.442946 0.442985 0.443017 0.443046 0.443066 0.443081 0.443086 0.443087 0.44308 0.443068 0.44305 0.443029 0.443004 0.442979 0.442955 0.44294 0.44231 0.442329 0.442359 0.442395 0.442432 0.44247 0.442505 0.442538 0.442566 0.442591 0.44261 0.442625 0.442634 0.442641 0.442643 0.442648 0.442653 0.442672 0.442707 0.442776 0.44289 0.44308 0.44337 0.443811 0.444452 0.445379 0.446684 0.448514 0.451038 0.454507 0.459225 0.465622 0.474239 0.485809 0.501262 0.521825 0.549021 0.584744 0.631172 0.690632 0.765125 0.855622 0.960956 1.07694 1.19618 1.30955 1.40874 1.4888 1.54895 1.59161 1.62059 1.63978 1.65233 1.66058 1.66607 1.66986 1.6726 1.6747 1.67639 1.67787 1.67918 1.68042 1.68159 1.68273 1.68383 1.68491 1.68595 1.68697 1.68796 1.68892 1.68984 1.69073 1.69157 1.69238 1.69314 1.69387 1.69455 1.69519 1.69579 1.69635 1.69685 1.69734 1.69777 1.69817 1.69853 1.69887 1.69916 1.69943 1.69967 1.69989 1.70007 1.70024 1.70037 1.7005 1.70059 1.70068 1.70073 1.70078 1.7008 1.70082 1.70081 1.70079 1.70074 1.70069 1.7006 1.70051 1.70038 1.70025 1.70008 1.6999 1.69969 1.69945 1.69918 1.69889 1.69855 1.6982 1.69779 1.69736 1.69688 1.69637 1.69581 1.69522 1.69457 1.6939 1.69316 1.6924 1.69159 1.69074 1.68985 1.68892 1.68796 1.68697 1.68594 1.68489 1.6838 1.6827 1.68155 1.68038 1.67913 1.6778 1.67632 1.6746 1.67248 1.66972 1.66589 1.66034 1.65201 1.63934 1.61995 1.5907 1.54768 1.4871 1.40656 1.30697 1.19335 1.07405 0.958197 0.853122 0.762942 0.688764 0.629588 0.583399 0.54787 0.52083 0.500392 0.485039 0.473553 0.465008 0.458673 0.454012 0.450597 0.448124 0.446344 0.445088 0.44421 0.443617 0.443224 0.442981 0.442837 0.442769 0.442744 0.442752 0.442774 0.442808 0.442841 0.442874 0.442899 0.44292 0.442932 0.442938 0.442935 0.442926 0.44291 0.442889 0.442862 0.442832 0.4428 0.442768 0.442741 0.442723 0.442111 0.442132 0.442164 0.442205 0.442248 0.442292 0.442335 0.442376 0.442411 0.442444 0.44247 0.442493 0.442508 0.442521 0.442528 0.442537 0.442545 0.442564 0.442597 0.442661 0.442766 0.442941 0.443208 0.443616 0.44421 0.445071 0.446287 0.447993 0.450351 0.453592 0.458005 0.46399 0.472052 0.482878 0.497338 0.516583 0.542045 0.57552 0.619103 0.675091 0.745586 0.831882 0.933431 1.04689 1.16567 1.28098 1.38411 1.46917 1.53431 1.58125 1.61352 1.63507 1.64921 1.65851 1.66468 1.6689 1.67191 1.67418 1.67598 1.67752 1.67888 1.68015 1.68134 1.68249 1.6836 1.68469 1.68574 1.68678 1.68777 1.68875 1.68967 1.69058 1.69143 1.69226 1.69303 1.69378 1.69447 1.69513 1.69573 1.69631 1.69683 1.69732 1.69777 1.69819 1.69856 1.69891 1.69921 1.6995 1.69974 1.69997 1.70016 1.70034 1.70048 1.70061 1.70071 1.7008 1.70086 1.70092 1.70094 1.70095 1.70094 1.70092 1.70087 1.70081 1.70072 1.70063 1.70049 1.70035 1.70018 1.69999 1.69976 1.69952 1.69923 1.69893 1.69858 1.69821 1.69779 1.69735 1.69685 1.69633 1.69575 1.69515 1.69449 1.6938 1.69305 1.69228 1.69145 1.69059 1.68968 1.68875 1.68777 1.68677 1.68573 1.68467 1.68358 1.68246 1.6813 1.6801 1.67883 1.67746 1.6759 1.67408 1.67179 1.66875 1.66448 1.65825 1.64886 1.63457 1.61281 1.58024 1.53293 1.46733 1.38181 1.27831 1.16279 1.04401 0.930717 0.829448 0.743473 0.673288 0.617574 0.574221 0.540931 0.515617 0.496492 0.482129 0.471384 0.463392 0.457469 0.453113 0.449924 0.447618 0.445962 0.444796 0.443983 0.443437 0.443078 0.442858 0.44273 0.44267 0.44265 0.44266 0.442682 0.442713 0.442741 0.442769 0.442788 0.442803 0.442807 0.442805 0.442794 0.442778 0.442753 0.442724 0.44269 0.442654 0.442616 0.44258 0.44255 0.442531 0.441935 0.441957 0.441992 0.442035 0.442083 0.442132 0.44218 0.442228 0.44227 0.442309 0.442342 0.442371 0.442392 0.44241 0.442421 0.442433 0.442443 0.442463 0.442493 0.442551 0.442646 0.442805 0.443048 0.443422 0.443969 0.444764 0.445889 0.447472 0.449662 0.452677 0.456784 0.462357 0.469866 0.479951 0.493423 0.511354 0.535085 0.566312 0.607031 0.659492 0.72586 0.807702 0.90504 1.01538 1.13303 1.24972 1.35654 1.44671 1.51725 1.56898 1.60505 1.62936 1.64542 1.65598 1.66298 1.66773 1.67107 1.67355 1.67549 1.67712 1.67853 1.67983 1.68105 1.68222 1.68334 1.68444 1.6855 1.68655 1.68756 1.68854 1.68948 1.6904 1.69127 1.69211 1.6929 1.69366 1.69436 1.69504 1.69566 1.69625 1.69679 1.6973 1.69776 1.69819 1.69858 1.69894 1.69926 1.69955 1.69981 1.70005 1.70025 1.70044 1.70059 1.70073 1.70083 1.70093 1.70099 1.70105 1.70107 1.70109 1.70107 1.70105 1.701 1.70094 1.70084 1.70074 1.7006 1.70045 1.70027 1.70007 1.69983 1.69957 1.69928 1.69896 1.6986 1.69821 1.69778 1.69732 1.69681 1.69627 1.69568 1.69506 1.69438 1.69368 1.69292 1.69212 1.69128 1.69041 1.68949 1.68854 1.68755 1.68654 1.68549 1.68442 1.68332 1.68219 1.68101 1.67978 1.67847 1.67705 1.67541 1.67345 1.67094 1.66757 1.66277 1.6557 1.64503 1.62881 1.60426 1.56787 1.51573 1.44474 1.35413 1.24697 1.13013 1.01252 0.902387 0.805344 0.723823 0.657758 0.60556 0.565058 0.534007 0.510417 0.4926 0.479221 0.469215 0.461773 0.456261 0.452211 0.449249 0.447111 0.445578 0.444503 0.443757 0.443259 0.442933 0.442737 0.442625 0.442576 0.442561 0.442574 0.442595 0.442624 0.442649 0.442672 0.442686 0.442694 0.442692 0.442684 0.442666 0.442643 0.442612 0.442577 0.442537 0.442496 0.442453 0.442415 0.442382 0.442362 0.441782 0.441804 0.441841 0.441886 0.441937 0.44199 0.442043 0.442095 0.442143 0.442187 0.442225 0.442259 0.442286 0.442308 0.442323 0.442337 0.442349 0.442368 0.442395 0.442447 0.442531 0.442674 0.442894 0.443233 0.443732 0.444461 0.445495 0.446955 0.448978 0.451768 0.455572 0.460738 0.467701 0.477054 0.489549 0.506183 0.528205 0.557202 0.595068 0.643982 0.706139 0.783321 0.876063 0.98269 1.09848 1.21585 1.32594 1.42118 1.49743 1.55449 1.59491 1.62247 1.64081 1.65291 1.66091 1.66631 1.67006 1.6728 1.67491 1.67664 1.67812 1.67946 1.68071 1.6819 1.68304 1.68415 1.68523 1.68629 1.68731 1.6883 1.68926 1.69019 1.69108 1.69193 1.69274 1.69351 1.69424 1.69493 1.69557 1.69617 1.69673 1.69726 1.69773 1.69818 1.69859 1.69896 1.69929 1.69961 1.69988 1.70013 1.70034 1.70053 1.70069 1.70084 1.70095 1.70105 1.70112 1.70118 1.70121 1.70122 1.70121 1.70118 1.70113 1.70106 1.70096 1.70085 1.70071 1.70055 1.70035 1.70014 1.69989 1.69963 1.69932 1.69898 1.69861 1.69821 1.69776 1.69728 1.69675 1.6962 1.69559 1.69495 1.69426 1.69353 1.69276 1.69195 1.69109 1.6902 1.68927 1.68831 1.68731 1.68628 1.68522 1.68414 1.68301 1.68187 1.68067 1.67941 1.67806 1.67656 1.67482 1.67269 1.66992 1.66613 1.66068 1.65259 1.64038 1.62186 1.59404 1.55327 1.49579 1.41907 1.32341 1.21304 1.09557 0.979876 0.873485 0.781049 0.704183 0.642319 0.593655 0.555993 0.527162 0.505274 0.488748 0.476342 0.467065 0.460168 0.455063 0.451315 0.448578 0.446606 0.445197 0.444212 0.443533 0.443083 0.442792 0.44262 0.442525 0.442486 0.442478 0.442493 0.442515 0.442543 0.442565 0.442584 0.442594 0.442597 0.442589 0.442575 0.442552 0.442523 0.442486 0.442446 0.442402 0.442357 0.442312 0.442271 0.442238 0.442218 0.441652 0.441674 0.441711 0.441758 0.441811 0.441867 0.441923 0.441978 0.44203 0.442079 0.442122 0.44216 0.44219 0.442216 0.442234 0.442251 0.442263 0.442281 0.442305 0.44235 0.442423 0.442549 0.442745 0.443049 0.443501 0.444164 0.445109 0.446447 0.448306 0.450874 0.45438 0.459146 0.465573 0.474209 0.485749 0.501112 0.521457 0.548263 0.583313 0.628698 0.686603 0.758975 0.846785 0.949128 1.06227 1.17952 1.29226 1.39237 1.47455 1.53742 1.58279 1.61414 1.63519 1.64914 1.65837 1.66457 1.66883 1.6719 1.67421 1.67607 1.67764 1.67904 1.68032 1.68154 1.6827 1.68383 1.68492 1.68599 1.68702 1.68803 1.689 1.68995 1.69085 1.69172 1.69255 1.69334 1.69408 1.69479 1.69545 1.69607 1.69665 1.69719 1.69769 1.69816 1.69857 1.69897 1.69932 1.69964 1.69992 1.70019 1.70041 1.70062 1.70079 1.70094 1.70106 1.70117 1.70124 1.7013 1.70133 1.70135 1.70133 1.7013 1.70124 1.70117 1.70107 1.70095 1.7008 1.70063 1.70043 1.7002 1.69994 1.69966 1.69934 1.69899 1.6986 1.69818 1.69771 1.69722 1.69667 1.6961 1.69547 1.69481 1.6941 1.69336 1.69256 1.69174 1.69086 1.68996 1.68901 1.68804 1.68702 1.68598 1.68491 1.68381 1.68267 1.6815 1.68028 1.67899 1.67758 1.676 1.67412 1.67179 1.66869 1.66438 1.65812 1.6488 1.63471 1.61345 1.58182 1.53608 1.47277 1.39013 1.28964 1.17667 1.05938 0.946377 0.844294 0.756795 0.684733 0.627106 0.581957 0.5471 0.520449 0.500229 0.484968 0.473514 0.464951 0.458589 0.453883 0.450432 0.447917 0.446109 0.444822 0.443927 0.443314 0.442912 0.442656 0.442508 0.44243 0.442402 0.442401 0.44242 0.442443 0.442469 0.44249 0.442506 0.442511 0.44251 0.442498 0.442479 0.442451 0.442418 0.442377 0.442333 0.442286 0.442238 0.442192 0.44215 0.442116 0.442096 0.441544 0.441566 0.441603 0.44165 0.441704 0.441761 0.44182 0.441878