# vtk DataFile Version 3.0
Immiscible displacement
ASCII
DATASET RECTILINEAR_GRID
DIMENSIONS 200 200 1
X_COORDINATES 200 double
1 2 3 4 5 6 7 8 9 10 11 12 13 14 15 16 17 18 19 20 21 22 23 24 25 26 27 28 29 30 31 32 33 34 35 36 37 38 39 40 41 42 43 44 45 46 47 48 49 50 51 52 53 54 55 56 57 58 59 60 61 62 63 64 65 66 67 68 69 70 71 72 73 74 75 76 77 78 79 80 81 82 83 84 85 86 87 88 89 90 91 92 93 94 95 96 97 98 99 100 101 102 103 104 105 106 107 108 109 110 111 112 113 114 115 116 117 118 119 120 121 122 123 124 125 126 127 128 129 130 131 132 133 134 135 136 137 138 139 140 141 142 143 144 145 146 147 148 149 150 151 152 153 154 155 156 157 158 159 160 161 162 163 164 165 166 167 168 169 170 171 172 173 174 175 176 177 178 179 180 181 182 183 184 185 186 187 188 189 190 191 192 193 194 195 196 197 198 199 200 
Y_COORDINATES 200 double
1 2 3 4 5 6 7 8 9 10 11 12 13 14 15 16 17 18 19 20 21 22 23 24 25 26 27 28 29 30 31 32 33 34 35 36 37 38 39 40 41 42 43 44 45 46 47 48 49 50 51 52 53 54 55 56 57 58 59 60 61 62 63 64 65 66 67 68 69 70 71 72 73 74 75 76 77 78 79 80 81 82 83 84 85 86 87 88 89 90 91 92 93 94 95 96 97 98 99 100 101 102 103 104 105 106 107 108 109 110 111 112 113 114 115 116 117 118 119 120 121 122 123 124 125 126 127 128 129 130 131 132 133 134 135 136 137 138 139 140 141 142 143 144 145 146 147 148 149 150 151 152 153 154 155 156 157 158 159 160 161 162 163 164 165 166 167 168 169 170 171 172 173 174 175 176 177 178 179 180 181 182 183 184 185 186 187 188 189 190 191 192 193 194 195 196 197 198 199 200 
Z_COORDINATES 1 double
0
POINT_DATA 40000
SCALARS rho double 1
LOOKUP_TABLE default
0.427914 0.427875 0.427828 0.427788 0.427766 0.427766 0.427793 0.427849 0.427935 0.428052 0.428202 0.428386 0.428604 0.42886 0.429157 0.429501 0.429897 0.430357 0.430894 0.431529 0.432287 0.433207 0.434338 0.43575 0.437532 0.439812 0.442754 0.446587 0.45161 0.458229 0.46698 0.47858 0.493965 0.514364 0.541339 0.576838 0.623145 0.682726 0.757765 0.849374 0.956427 1.0745 1.19574 1.31036 1.40965 1.48862 1.5468 1.58702 1.61346 1.63015 1.64034 1.64634 1.64969 1.65141 1.65211 1.6522 1.6519 1.65138 1.6507 1.64995 1.64914 1.64831 1.64745 1.64659 1.64572 1.64485 1.64399 1.64313 1.64228 1.64144 1.64061 1.6398 1.63899 1.63821 1.63743 1.63668 1.63594 1.63523 1.63454 1.63387 1.63322 1.6326 1.63201 1.63144 1.6309 1.63039 1.62991 1.62947 1.62905 1.62868 1.62833 1.62802 1.62774 1.6275 1.62729 1.62713 1.627 1.62691 1.62685 1.62683 1.62685 1.62691 1.627 1.62714 1.6273 1.62751 1.62775 1.62804 1.62835 1.6287 1.62908 1.6295 1.62994 1.63043 1.63093 1.63148 1.63204 1.63264 1.63326 1.63392 1.63459 1.63528 1.636 1.63674 1.63749 1.63827 1.63906 1.63986 1.64068 1.64151 1.64235 1.6432 1.64406 1.64493 1.64579 1.64666 1.64753 1.64839 1.64922 1.65003 1.65078 1.65145 1.65197 1.65227 1.65217 1.65145 1.6497 1.64629 1.64021 1.62989 1.61299 1.58626 1.54565 1.48698 1.40748 1.30774 1.19285 1.07159 0.953724 0.847036 0.755854 0.681236 0.622031 0.576037 0.540792 0.514017 0.493775 0.478512 0.467008 0.458332 0.451773 0.446798 0.443004 0.440095 0.437843 0.436085 0.434696 0.433585 0.432682 0.43194 0.43132 0.430796 0.430348 0.429962 0.429628 0.429338 0.429087 0.428872 0.42869 0.42854 0.42842 0.42833 0.428268 0.428235 0.428228 0.428246 0.428284 0.428337 0.428395 0.42844 0.427867 0.42784 0.427804 0.427773 0.427757 0.427763 0.427794 0.427853 0.427942 0.428062 0.428213 0.428398 0.428617 0.428875 0.429172 0.429515 0.429911 0.43037 0.430906 0.431539 0.432295 0.433213 0.43434 0.435746 0.437522 0.439793 0.442724 0.446543 0.451545 0.458139 0.466854 0.478406 0.493727 0.514042 0.540904 0.576256 0.622374 0.681723 0.756492 0.847819 0.954617 1.07253 1.19375 1.30852 1.4081 1.48742 1.54593 1.58642 1.61306 1.62991 1.64019 1.64626 1.64965 1.6514 1.65212 1.65222 1.65192 1.65141 1.65074 1.64999 1.64918 1.64835 1.64749 1.64663 1.64576 1.6449 1.64403 1.64318 1.64233 1.6415 1.64066 1.63986 1.63905 1.63827 1.63749 1.63674 1.636 1.6353 1.6346 1.63394 1.63329 1.63267 1.63207 1.63151 1.63097 1.63047 1.62998 1.62954 1.62913 1.62875 1.6284 1.62809 1.62781 1.62758 1.62737 1.62721 1.62707 1.62698 1.62692 1.62691 1.62692 1.62699 1.62708 1.62721 1.62738 1.62759 1.62783 1.62811 1.62842 1.62877 1.62915 1.62957 1.63001 1.6305 1.631 1.63155 1.63211 1.63271 1.63333 1.63398 1.63465 1.63535 1.63606 1.6368 1.63755 1.63833 1.63911 1.63992 1.64073 1.64157 1.6424 1.64326 1.64411 1.64498 1.64584 1.64671 1.64757 1.64843 1.64926 1.65007 1.65082 1.65148 1.652 1.65228 1.65217 1.65143 1.64965 1.6462 1.64005 1.62963 1.61259 1.58566 1.54476 1.48576 1.40592 1.3059 1.19086 1.06963 0.951926 0.845492 0.754592 0.680242 0.621266 0.575461 0.540361 0.513698 0.493539 0.478339 0.466882 0.458242 0.451708 0.446753 0.442974 0.440076 0.437833 0.436082 0.434697 0.43359 0.43269 0.43195 0.431331 0.430809 0.430361 0.429976 0.429641 0.429351 0.4291 0.428884 0.428701 0.428549 0.428427 0.428335 0.42827 0.428233 0.428222 0.428234 0.428264 0.428308 0.428354 0.428387 0.427801 0.427784 0.427761 0.427743 0.427738 0.427753 0.427791 0.427857 0.42795 0.428074 0.428229 0.428416 0.428638 0.428896 0.429194 0.429538 0.429933 0.430391 0.430925 0.431556 0.432307 0.43322 0.434339 0.435736 0.437499 0.439754 0.442664 0.446453 0.451417 0.457958 0.466604 0.478062 0.493258 0.513405 0.540045 0.575105 0.620852 0.679743 0.753981 0.844748 0.951046 1.06864 1.18982 1.30489 1.40502 1.48501 1.54418 1.58522 1.61227 1.62941 1.63989 1.64608 1.64956 1.65136 1.65212 1.65224 1.65197 1.65146 1.6508 1.65006 1.64925 1.64842 1.64757 1.64671 1.64585 1.64499 1.64413 1.64328 1.64243 1.6416 1.64077 1.63996 1.63916 1.63838 1.6376 1.63686 1.63612 1.63542 1.63472 1.63406 1.63341 1.6328 1.6322 1.63164 1.6311 1.6306 1.63012 1.62968 1.62926 1.62889 1.62854 1.62823 1.62795 1.62772 1.62751 1.62735 1.62721 1.62713 1.62707 1.62705 1.62707 1.62713 1.62722 1.62736 1.62752 1.62773 1.62797 1.62825 1.62856 1.62891 1.62929 1.62971 1.63015 1.63063 1.63114 1.63168 1.63224 1.63284 1.63346 1.63411 1.63477 1.63547 1.63618 1.63691 1.63766 1.63844 1.63922 1.64002 1.64083 1.64167 1.6425 1.64335 1.6442 1.64507 1.64592 1.64679 1.64765 1.6485 1.64933 1.65014 1.65088 1.65154 1.65204 1.65231 1.65217 1.65139 1.64956 1.64603 1.63974 1.62913 1.61179 1.58445 1.543 1.48335 1.40284 1.30227 1.18695 1.06575 0.948375 0.842442 0.7521 0.678278 0.619757 0.57432 0.539509 0.513066 0.493074 0.477998 0.466634 0.458062 0.45158 0.446664 0.442913 0.440037 0.43781 0.436071 0.434696 0.433596 0.432701 0.431965 0.431349 0.430829 0.430382 0.429998 0.429663 0.429372 0.429119 0.428902 0.428716 0.428561 0.428436 0.428339 0.428269 0.428225 0.428206 0.428208 0.428227 0.428258 0.428289 0.428311 0.427727 0.427718 0.427707 0.427702 0.427709 0.427735 0.427783 0.427856 0.427956 0.428086 0.428245 0.428436 0.42866 0.428921 0.42922 0.429564 0.429959 0.430416 0.430947 0.431574 0.43232 0.433225 0.434334 0.435718 0.437463 0.439694 0.442572 0.446319 0.451226 0.457691 0.466234 0.477554 0.492564 0.512463 0.538774 0.573404 0.6186 0.676813 0.750265 0.840202 0.945752 1.06286 1.18397 1.29946 1.4004 1.4814 1.54154 1.5834 1.61107 1.62865 1.63942 1.64581 1.64942 1.65131 1.65211 1.65227 1.65202 1.65153 1.65088 1.65015 1.64935 1.64853 1.64768 1.64683 1.64597 1.64511 1.64426 1.64341 1.64257 1.64174 1.64091 1.64011 1.63931 1.63853 1.63776 1.63702 1.63629 1.63558 1.63489 1.63423 1.63359 1.63298 1.63239 1.63183 1.63129 1.63079 1.63031 1.62988 1.62946 1.62909 1.62874 1.62844 1.62816 1.62792 1.62772 1.62755 1.62742 1.62733 1.62727 1.62726 1.62728 1.62734 1.62743 1.62756 1.62773 1.62794 1.62817 1.62845 1.62876 1.62911 1.62949 1.6299 1.63034 1.63082 1.63133 1.63187 1.63243 1.63302 1.63363 1.63428 1.63494 1.63564 1.63634 1.63708 1.63782 1.63859 1.63937 1.64017 1.64098 1.64181 1.64264 1.64349 1.64433 1.64519 1.64605 1.64691 1.64776 1.64861 1.64943 1.65023 1.65096 1.65161 1.65209 1.65234 1.65217 1.65134 1.64942 1.64576 1.63928 1.62836 1.61059 1.58262 1.54035 1.47972 1.39821 1.29684 1.18111 1.05999 0.943109 0.837926 0.748412 0.675373 0.617525 0.572634 0.538249 0.512132 0.492386 0.477494 0.466266 0.457797 0.45139 0.44653 0.442822 0.439977 0.437774 0.436053 0.43469 0.4336 0.432713 0.431982 0.43137 0.430852 0.430407 0.430023 0.429688 0.429396 0.429141 0.428921 0.428732 0.428573 0.428443 0.42834 0.428263 0.428211 0.428181 0.428172 0.428178 0.428194 0.428213 0.428226 0.42765 0.427648 0.427647 0.427653 0.427673 0.42771 0.427768 0.427851 0.427959 0.428095 0.428259 0.428455 0.428683 0.428946 0.429246 0.429591 0.429985 0.430441 0.430969 0.431591 0.432331 0.433226 0.434323 0.43569 0.437412 0.439613 0.44245 0.446141 0.450975 0.457339 0.465748 0.476887 0.491654 0.511228 0.537107 0.571173 0.615647 0.672969 0.745382 0.834218 0.938767 1.0552 1.1762 1.29222 1.39421 1.47653 1.53797 1.58094 1.60945 1.62761 1.63879 1.64545 1.64922 1.65122 1.6521 1.65231 1.65209 1.65162 1.65099 1.65027 1.64948 1.64867 1.64782 1.64698 1.64612 1.64528 1.64442 1.64358 1.64274 1.64192 1.6411 1.6403 1.6395 1.63873 1.63797 1.63723 1.6365 1.6358 1.63511 1.63446 1.63382 1.63321 1.63262 1.63207 1.63153 1.63104 1.63056 1.63013 1.62971 1.62934 1.629 1.6287 1.62842 1.62819 1.62798 1.62782 1.62769 1.6276 1.62754 1.62753 1.62754 1.6276 1.62769 1.62783 1.62799 1.6282 1.62843 1.62871 1.62902 1.62937 1.62974 1.63016 1.63059 1.63107 1.63157 1.63211 1.63266 1.63326 1.63386 1.63451 1.63517 1.63586 1.63656 1.63729 1.63803 1.63879 1.63957 1.64037 1.64117 1.64199 1.64281 1.64366 1.6445 1.64535 1.6462 1.64706 1.6479 1.64875 1.64956 1.65035 1.65107 1.6517 1.65216 1.65237 1.65215 1.65125 1.64922 1.64538 1.63864 1.62732 1.60894 1.58013 1.53676 1.47483 1.392 1.28959 1.17334 1.05236 0.936158 0.831979 0.743565 0.671558 0.614596 0.570421 0.536597 0.510908 0.491484 0.476833 0.465784 0.457448 0.45114 0.446354 0.4427 0.439896 0.437723 0.436024 0.434679 0.433601 0.432723 0.431999 0.431391 0.430876 0.430433 0.430049 0.429713 0.42942 0.429163 0.42894 0.428746 0.428583 0.428446 0.428336 0.428251 0.428189 0.428149 0.428127 0.42812 0.428124 0.428131 0.428137 0.427574 0.427576 0.427584 0.427601 0.427632 0.42768 0.427748 0.42784 0.427957 0.4281 0.42827 0.428471 0.428703 0.428969 0.429271 0.429617 0.430011 0.430464 0.430989 0.431606 0.432338 0.433223 0.434305 0.435651 0.437346 0.43951 0.442297 0.445922 0.450665 0.456908 0.465152 0.476069 0.490539 0.509713 0.535063 0.568435 0.612022 0.668246 0.739376 0.826839 0.930124 1.04569 1.16648 1.2831 1.38638 1.47033 1.53341 1.57777 1.60735 1.62627 1.63797 1.64496 1.64896 1.6511 1.65208 1.65235 1.65217 1.65173 1.65112 1.65041 1.64963 1.64883 1.648 1.64716 1.64631 1.64547 1.64462 1.64379 1.64295 1.64214 1.64132 1.64053 1.63974 1.63897 1.63821 1.63748 1.63676 1.63606 1.63538 1.63473 1.6341 1.63349 1.63291 1.63236 1.63183 1.63134 1.63086 1.63043 1.63002 1.62966 1.62931 1.62901 1.62874 1.62851 1.6283 1.62814 1.62801 1.62792 1.62787 1.62785 1.62787 1.62793 1.62802 1.62815 1.62831 1.62852 1.62875 1.62903 1.62933 1.62968 1.63005 1.63046 1.6309 1.63137 1.63187 1.6324 1.63295 1.63354 1.63414 1.63478 1.63543 1.63612 1.63682 1.63754 1.63828 1.63904 1.6398 1.6406 1.64139 1.64221 1.64303 1.64386 1.6447 1.64555 1.64639 1.64724 1.64808 1.64891 1.64972 1.65049 1.6512 1.65181 1.65224 1.65241 1.65213 1.65113 1.64895 1.64489 1.63781 1.62597 1.60683 1.57694 1.53217 1.4686 1.38414 1.28046 1.16364 1.04288 0.927557 0.824645 0.7376 0.666872 0.611 0.567707 0.534571 0.509407 0.490378 0.476022 0.465193 0.45702 0.450833 0.446136 0.442549 0.439793 0.437657 0.435985 0.43466 0.433597 0.432729 0.432013 0.431411 0.430899 0.430457 0.430074 0.429738 0.429443 0.429183 0.428956 0.428758 0.428589 0.428445 0.428328 0.428233 0.428162 0.42811 0.428077 0.428058 0.42805 0.428048 0.428049 0.427499 0.427505 0.42752 0.427546 0.427587 0.427646 0.427724 0.427825 0.42795 0.4281 0.428278 0.428484 0.428719 0.428989 0.429293 0.42964 0.430034 0.430485 0.431007 0.431617 0.432341 0.433213 0.434278 0.435602 0.437265 0.439386 0.442115 0.445662 0.450299 0.4564 0.464451 0.475109 0.489229 0.507935 0.532664 0.565221 0.607761 0.662688 0.732294 0.818113 0.91986 1.03432 1.1548 1.27205 1.3768 1.4627 1.52776 1.57383 1.60472 1.62459 1.63693 1.64435 1.64863 1.65095 1.65204 1.65238 1.65226 1.65185 1.65126 1.65057 1.64981 1.64902 1.6482 1.64737 1.64653 1.64569 1.64485 1.64403 1.6432 1.64239 1.64158 1.6408 1.64001 1.63925 1.6385 1.63778 1.63706 1.63637 1.6357 1.63505 1.63442 1.63382 1.63324 1.6327 1.63217 1.63169 1.63122 1.63079 1.63038 1.63002 1.62968 1.62938 1.62911 1.62888 1.62868 1.62852 1.62839 1.6283 1.62825 1.62823 1.62825 1.62831 1.6284 1.62853 1.62869 1.6289 1.62913 1.6294 1.6297 1.63005 1.63041 1.63082 1.63125 1.63172 1.63221 1.63274 1.63329 1.63387 1.63447 1.6351 1.63575 1.63643 1.63712 1.63784 1.63856 1.63932 1.64008 1.64086 1.64165 1.64246 1.64327 1.6441 1.64493 1.64577 1.64661 1.64745 1.64828 1.6491 1.64989 1.65065 1.65134 1.65193 1.65233 1.65244 1.65208 1.65097 1.64861 1.64427 1.63676 1.62427 1.60418 1.57297 1.52648 1.46093 1.37454 1.2694 1.15197 1.03155 0.91734 0.81597 0.730567 0.661356 0.606774 0.564519 0.532192 0.507644 0.489079 0.47507 0.464499 0.456516 0.450471 0.445878 0.442368 0.43967 0.437576 0.435936 0.434633 0.433587 0.432732 0.432024 0.431428 0.43092 0.43048 0.430097 0.42976 0.429463 0.4292 0.428969 0.428766 0.428591 0.42844 0.428315 0.428211 0.42813 0.428068 0.428024 0.427994 0.427976 0.427967 0.427963 0.427426 0.427436 0.427456 0.427491 0.427541 0.427609 0.427697 0.427806 0.427939 0.428097 0.428281 0.428492 0.428732 0.429005 0.429312 0.42966 0.430053 0.430503 0.43102 0.431624 0.432338 0.433197 0.434244 0.435541 0.437169 0.439242 0.441906 0.445364 0.449882 0.455821 0.463654 0.474017 0.487739 0.505913 0.529933 0.561561 0.602907 0.656346 0.724194 0.808097 0.908018 1.02112 1.14112 1.25899 1.36538 1.45351 1.5209 1.56901 1.6015 1.62252 1.63564 1.64358 1.6482 1.65074 1.65197 1.65241 1.65235 1.65198 1.65143 1.65076 1.65001 1.64924 1.64842 1.64761 1.64677 1.64595 1.64512 1.6443 1.64348 1.64268 1.64188 1.6411 1.64032 1.63957 1.63883 1.63811 1.6374 1.63672 1.63605 1.63541 1.63479 1.6342 1.63362 1.63309 1.63257 1.63208 1.63162 1.6312 1.6308 1.63044 1.6301 1.6298 1.62953 1.62931 1.62911 1.62895 1.62882 1.62874 1.62868 1.62867 1.62868 1.62874 1.62883 1.62896 1.62912 1.62932 1.62955 1.62983 1.63012 1.63046 1.63082 1.63123 1.63165 1.63212 1.6326 1.63313 1.63367 1.63425 1.63484 1.63546 1.6361 1.63678 1.63746 1.63817 1.63889 1.63964 1.64039 1.64117 1.64195 1.64275 1.64355 1.64438 1.64519 1.64603 1.64685 1.64769 1.6485 1.64932 1.65009 1.65084 1.6515 1.65206 1.65242 1.65247 1.65202 1.65076 1.64818 1.6435 1.63545 1.62218 1.60093 1.56811 1.51957 1.4517 1.36309 1.25633 1.1383 1.01839 0.905553 0.806013 0.722521 0.655061 0.601958 0.56089 0.529484 0.505639 0.487602 0.473987 0.463709 0.455943 0.450058 0.445583 0.442161 0.439527 0.437481 0.435876 0.434599 0.433571 0.43273 0.432031 0.431441 0.430937 0.430499 0.430117 0.429778 0.429479 0.429213 0.428978 0.42877 0.428589 0.428431 0.428298 0.428186 0.428095 0.428023 0.427969 0.427929 0.427903 0.427888 0.427881 0.427356 0.427368 0.427394 0.427436 0.427493 0.42757 0.427666 0.427784 0.427925 0.42809 0.42828 0.428496 0.428741 0.429017 0.429327 0.429675 0.430068 0.430516 0.431029 0.431627 0.43233 0.433174 0.4342 0.435469 0.437059 0.439078 0.441671 0.445031 0.449417 0.455176 0.462767 0.472802 0.486083 0.503666 0.5269 0.557493 0.597506 0.649278 0.715143 0.79686 0.894658 1.00612 1.12542 1.24385 1.35199 1.44262 1.51269 1.56319 1.59758 1.61998 1.63406 1.64263 1.64766 1.65047 1.65188 1.65243 1.65244 1.65213 1.6516 1.65096 1.65024 1.64947 1.64867 1.64787 1.64705 1.64623 1.64541 1.6446 1.64379 1.643 1.64221 1.64144 1.64067 1.63993 1.63919 1.63848 1.63778 1.63711 1.63645 1.63582 1.6352 1.63462 1.63405 1.63352 1.633 1.63253 1.63207 1.63165 1.63126 1.6309 1.63057 1.63028 1.63001 1.62979 1.62959 1.62944 1.62931 1.62922 1.62917 1.62916 1.62917 1.62923 1.62932 1.62945 1.6296 1.6298 1.63003 1.6303 1.63059 1.63093 1.63128 1.63168 1.6321 1.63256 1.63304 1.63356 1.63409 1.63466 1.63525 1.63587 1.6365 1.63717 1.63784 1.63854 1.63926 1.63999 1.64074 1.64151 1.64228 1.64307 1.64387 1.64468 1.64549 1.64631 1.64713 1.64795 1.64876 1.64955 1.65032 1.65104 1.65168 1.6522 1.65251 1.65249 1.65192 1.65048 1.64763 1.64254 1.63385 1.61961 1.59697 1.56225 1.51131 1.44075 1.34965 1.24118 1.12262 1.00343 0.892253 0.79484 0.71353 0.648045 0.596598 0.556854 0.526475 0.503411 0.485961 0.472784 0.46283 0.455304 0.449597 0.445254 0.441928 0.439366 0.437372 0.435805 0.434556 0.433549 0.432722 0.432034 0.431451 0.43095 0.430515 0.430133 0.429794 0.429492 0.429223 0.428983 0.42877 0.428583 0.428419 0.428277 0.428157 0.428058 0.427977 0.427913 0.427866 0.427832 0.427811 0.427801 0.427289 0.427304 0.427334 0.427381 0.427446 0.42753 0.427634 0.42776 0.427907 0.428079 0.428275 0.428497 0.428746 0.429026 0.429337 0.429687 0.43008 0.430525 0.431034 0.431624 0.432317 0.433145 0.434149 0.435387 0.436934 0.438897 0.441411 0.444666 0.448908 0.454472 0.461799 0.471478 0.484279 0.501217 0.523593 0.553057 0.59161 0.64155 0.705217 0.784485 0.879852 0.989353 1.10769 1.22655 1.33648 1.42986 1.50296 1.55624 1.59286 1.6169 1.63212 1.64146 1.64699 1.65012 1.65174 1.65243 1.65253 1.65227 1.65179 1.65118 1.65048 1.64973 1.64895 1.64816 1.64735 1.64654 1.64573 1.64494 1.64414 1.64335 1.64257 1.64181 1.64105 1.64032 1.63959 1.63889 1.6382 1.63754 1.63689 1.63626 1.63565 1.63508 1.63452 1.63399 1.63349 1.63302 1.63257 1.63215 1.63176 1.63141 1.63108 1.6308 1.63053 1.63031 1.63012 1.62997 1.62984 1.62976 1.6297 1.62969 1.62971 1.62976 1.62985 1.62998 1.63013 1.63033 1.63055 1.63082 1.63111 1.63144 1.63179 1.63219 1.6326 1.63305 1.63353 1.63404 1.63456 1.63513 1.6357 1.63631 1.63694 1.63759 1.63826 1.63895 1.63966 1.64039 1.64112 1.64188 1.64264 1.64343 1.64421 1.64501 1.64581 1.64662 1.64743 1.64824 1.64903 1.64981 1.65056 1.65126 1.65187 1.65235 1.65259 1.65248 1.65177 1.65013 1.64695 1.64135 1.63189 1.61651 1.59221 1.55524 1.50152 1.42793 1.33411 1.22386 1.10491 0.986714 0.877515 0.782536 0.70367 0.640372 0.590747 0.552453 0.523196 0.500983 0.484172 0.471471 0.461871 0.454607 0.449093 0.444892 0.441671 0.439186 0.437249 0.435724 0.434506 0.43352 0.432709 0.432031 0.431456 0.43096 0.430527 0.430145 0.429805 0.429502 0.429229 0.428985 0.428767 0.428574 0.428403 0.428254 0.428127 0.428019 0.42793 0.427859 0.427804 0.427764 0.427739 0.427726 0.427225 0.427242 0.427276 0.427328 0.427399 0.427489 0.4276 0.427733 0.427887 0.428065 0.428267 0.428494 0.428747 0.42903 0.429344 0.429694 0.430086 0.430529 0.431033 0.431616 0.432297 0.433108 0.434089 0.435294 0.436797 0.438699 0.44113 0.444271 0.44836 0.453715 0.46076 0.470056 0.482343 0.49859 0.520046 0.548297 0.585277 0.633235 0.694507 0.771068 0.863694 0.970888 1.08794 1.20701 1.31873 1.41504 1.49151 1.54797 1.58719 1.61317 1.62975 1.64001 1.64615 1.64967 1.65154 1.65239 1.6526 1.65242 1.65199 1.65142 1.65074 1.65002 1.64925 1.64847 1.64767 1.64688 1.64608 1.6453 1.64451 1.64374 1.64297 1.64222 1.64147 1.64075 1.64003 1.63934 1.63866 1.638 1.63736 1.63675 1.63615 1.63558 1.63503 1.63451 1.63401 1.63355 1.6331 1.6327 1.63231 1.63197 1.63165 1.63136 1.6311 1.63089 1.6307 1.63055 1.63042 1.63034 1.63029 1.63027 1.63029 1.63035 1.63043 1.63056 1.63071 1.6309 1.63112 1.63138 1.63167 1.63199 1.63234 1.63273 1.63314 1.63359 1.63405 1.63455 1.63507 1.63563 1.6362 1.6368 1.63741 1.63806 1.63872 1.6394 1.64009 1.64081 1.64154 1.64229 1.64304 1.64381 1.64458 1.64537 1.64616 1.64696 1.64775 1.64855 1.64933 1.6501 1.65082 1.65149 1.65207 1.65249 1.65267 1.65245 1.65157 1.64967 1.6461 1.63988 1.62951 1.61274 1.58649 1.54691 1.49001 1.41305 1.31631 1.20432 1.0852 0.968307 0.861432 0.769197 0.69303 0.632116 0.584463 0.547731 0.519678 0.498378 0.482253 0.470062 0.460841 0.453857 0.448549 0.444501 0.441393 0.43899 0.437114 0.435633 0.434447 0.433485 0.43269 0.432024 0.431456 0.430965 0.430535 0.430154 0.429813 0.429507 0.429231 0.428984 0.428761 0.428562 0.428385 0.428229 0.428094 0.427979 0.427883 0.427805 0.427744 0.427699 0.427669 0.427654 0.427163 0.427182 0.427219 0.427276 0.427352 0.427449 0.427566 0.427705 0.427865 0.428049 0.428256 0.428487 0.428745 0.42903 0.429346 0.429698 0.430089 0.430529 0.431028 0.431603 0.432272 0.433066 0.434021 0.435193 0.436649 0.438486 0.440829 0.443851 0.447777 0.452912 0.459658 0.468552 0.480295 0.495813 0.516295 0.543261 0.578572 0.624414 0.68311 0.756724 0.846296 0.950815 1.06621 1.1852 1.2986 1.39797 1.47814 1.53818 1.5804 1.60867 1.62687 1.63823 1.64509 1.64909 1.65127 1.65232 1.65266 1.65257 1.6522 1.65166 1.65102 1.65032 1.64957 1.64881 1.64803 1.64725 1.64646 1.64569 1.64491 1.64415 1.64339 1.64265 1.64192 1.6412 1.6405 1.63982 1.63915 1.6385 1.63787 1.63727 1.63668 1.63612 1.63558 1.63507 1.63458 1.63412 1.63368 1.63329 1.63291 1.63257 1.63225 1.63197 1.63172 1.63151 1.63132 1.63117 1.63105 1.63097 1.63091 1.6309 1.63092 1.63097 1.63106 1.63118 1.63133 1.63152 1.63174 1.63199 1.63227 1.63259 1.63294 1.63332 1.63372 1.63416 1.63462 1.63511 1.63562 1.63617 1.63673 1.63732 1.63792 1.63856 1.63921 1.63988 1.64056 1.64127 1.64198 1.64272 1.64346 1.64422 1.64498 1.64576 1.64654 1.64732 1.6481 1.64889 1.64965 1.6504 1.6511 1.65174 1.65227 1.65264 1.65272 1.65237 1.6513 1.64908 1.64503 1.63808 1.62659 1.6082 1.57965 1.53704 1.47655 1.3959 1.29613 1.1825 1.0635 0.948302 0.844116 0.754935 0.681707 0.623358 0.577808 0.542734 0.515957 0.495623 0.480222 0.468571 0.459749 0.453061 0.447972 0.444085 0.441095 0.43878 0.436967 0.435533 0.434381 0.433443 0.432666 0.432012 0.431452 0.430966 0.430538 0.430158 0.429816 0.429509 0.42923 0.428979 0.428751 0.428547 0.428364 0.428203 0.428061 0.42794 0.427837 0.427752 0.427686 0.427636 0.427603 0.427587 0.427104 0.427125 0.427165 0.427225 0.427306 0.427408 0.427531 0.427675 0.427841 0.42803 0.428242 0.428478 0.428739 0.429027 0.429345 0.429697 0.430087 0.430525 0.431018 0.431584 0.432241 0.433016 0.433946 0.435082 0.436489 0.438259 0.440511 0.443408 0.447165 0.452071 0.458506 0.466979 0.478155 0.492911 0.512378 0.538 0.57156 0.615174 0.671135 0.74158 0.827796 0.929256 1.04257 1.1611 1.27597 1.37844 1.46258 1.52662 1.5723 1.60324 1.62336 1.63603 1.64377 1.64835 1.6509 1.65219 1.65269 1.6527 1.6524 1.65192 1.65131 1.65063 1.64991 1.64916 1.6484 1.64763 1.64686 1.6461 1.64534 1.64459 1.64384 1.64311 1.64239 1.64169 1.641 1.64033 1.63967 1.63904 1.63841 1.63782 1.63724 1.63669 1.63616 1.63566 1.63518 1.63473 1.6343 1.63391 1.63354 1.63321 1.63289 1.63262 1.63237 1.63216 1.63198 1.63183 1.63171 1.63164 1.63158 1.63157 1.63159 1.63164 1.63172 1.63184 1.63199 1.63218 1.63239 1.63264 1.63292 1.63323 1.63357 1.63394 1.63434 1.63477 1.63522 1.6357 1.63621 1.63674 1.63729 1.63787 1.63847 1.63909 1.63973 1.64039 1.64106 1.64176 1.64246 1.64318 1.64391 1.64466 1.64541 1.64617 1.64694 1.64771 1.64848 1.64924 1.64999 1.65071 1.65138 1.65199 1.65247 1.65277 1.65275 1.65223 1.65092 1.64833 1.6437 1.63586 1.62304 1.60271 1.57147 1.5254 1.4609 1.37629 1.27346 1.1584 1.0399 0.926818 0.825705 0.739879 0.669811 0.614183 0.570848 0.537514 0.512071 0.492746 0.4781 0.467011 0.458607 0.452227 0.447366 0.443647 0.440781 0.438556 0.43681 0.435424 0.434308 0.433395 0.432636 0.431995 0.431444 0.430963 0.430538 0.430159 0.429817 0.429507 0.429226 0.428971 0.428739 0.42853 0.428342 0.428175 0.428027 0.4279 0.427791 0.427701 0.42763 0.427576 0.42754 0.427522 0.427048 0.42707 0.427112 0.427176 0.427261 0.427368 0.427495 0.427645 0.427816 0.428009 0.428225 0.428465 0.42873 0.429021 0.42934 0.429692 0.430081 0.430516 0.431004 0.431561 0.432204 0.432961 0.433865 0.434964 0.43632 0.438021 0.440178 0.442947 0.446529 0.451198 0.457312 0.465351 0.475943 0.489914 0.508332 0.532566 0.564313 0.605608 0.658701 0.725778 0.808352 0.906362 1.01712 1.13474 1.25075 1.35625 1.44458 1.51304 1.56264 1.59668 1.61907 1.63332 1.64212 1.64739 1.65039 1.65198 1.65267 1.65281 1.6526 1.65217 1.65161 1.65096 1.65026 1.64954 1.64879 1.64804 1.64729 1.64654 1.64579 1.64505 1.64432 1.64361 1.6429 1.64221 1.64153 1.64087 1.64022 1.6396 1.63899 1.63841 1.63784 1.6373 1.63678 1.63629 1.63582 1.63538 1.63496 1.63457 1.63421 1.63388 1.63358 1.63331 1.63306 1.63286 1.63268 1.63254 1.63242 1.63234 1.63229 1.63228 1.63229 1.63235 1.63243 1.63255 1.63269 1.63288 1.63308 1.63333 1.6336 1.63391 1.63424 1.6346 1.63499 1.63541 1.63586 1.63633 1.63682 1.63735 1.63789 1.63846 1.63904 1.63966 1.64028 1.64093 1.64159 1.64227 1.64296 1.64367 1.64439 1.64512 1.64586 1.64661 1.64736 1.64812 1.64887 1.64962 1.65034 1.65104 1.65168 1.65225 1.65267 1.65288 1.65273 1.65202 1.65041 1.64736 1.64202 1.63312 1.61872 1.59609 1.56173 1.51172 1.44281 1.35403 1.24819 1.13205 1.01451 0.904009 0.806356 0.724169 0.657457 0.604683 0.563654 0.532121 0.508057 0.489773 0.475906 0.465397 0.457424 0.451362 0.446737 0.44319 0.440452 0.438321 0.436643 0.435308 0.434228 0.433342 0.432601 0.431973 0.431431 0.430956 0.430534 0.430156 0.429813 0.429503 0.429219 0.42896 0.428725 0.428511 0.428318 0.428146 0.427993 0.427861 0.427747 0.427652 0.427576 0.427519 0.427481 0.427461 0.426994 0.427017 0.427062 0.427129 0.427217 0.427328 0.42746 0.427613 0.427789 0.427987 0.428207 0.42845 0.428717 0.429011 0.429331 0.429684 0.430071 0.430502 0.430985 0.431533 0.432162 0.4329 0.433776 0.434838 0.436143 0.437773 0.439834 0.442471 0.445875 0.450302 0.456088 0.463685 0.47368 0.48685 0.504198 0.527012 0.556901 0.595809 0.645929 0.709471 0.788139 0.882317 0.99002 1.10618 1.22289 1.33124 1.42388 1.49712 1.55113 1.58877 1.61384 1.62998 1.64005 1.64616 1.64972 1.65167 1.6526 1.65289 1.65278 1.65243 1.65191 1.6513 1.65063 1.64993 1.6492 1.64847 1.64773 1.647 1.64626 1.64554 1.64482 1.64412 1.64342 1.64275 1.64208 1.64144 1.6408 1.64019 1.63959 1.63902 1.63847 1.63794 1.63743 1.63695 1.63648 1.63605 1.63564 1.63527 1.63491 1.63459 1.63429 1.63403 1.63379 1.63359 1.63341 1.63328 1.63316 1.63309 1.63304 1.63302 1.63304 1.63309 1.63317 1.63329 1.63343 1.63361 1.63381 1.63405 1.63432 1.63462 1.63494 1.6353 1.63568 1.63609 1.63652 1.63699 1.63747 1.63799 1.63852 1.63908 1.63965 1.64025 1.64086 1.6415 1.64214 1.64281 1.64349 1.64419 1.64489 1.64561 1.64633 1.64707 1.6478 1.64855 1.64928 1.65001 1.65071 1.65138 1.65198 1.6525 1.65285 1.65295 1.65265 1.6517 1.64972 1.64612 1.63993 1.62974 1.61343 1.58811 1.55014 1.4957 1.42199 1.32893 1.2203 1.1035 0.987475 0.880057 0.786245 0.707958 0.644769 0.594953 0.556296 0.526609 0.503954 0.486733 0.473662 0.463745 0.45621 0.450474 0.446088 0.442719 0.440111 0.438076 0.436469 0.435184 0.434142 0.433283 0.432561 0.431947 0.431413 0.430944 0.430525 0.430149 0.429806 0.429494 0.429208 0.428947 0.428708 0.42849 0.428293 0.428116 0.427959 0.427822 0.427703 0.427604 0.427525 0.427465 0.427424 0.427404 0.426942 0.426966 0.427013 0.427082 0.427174 0.427288 0.427424 0.427581 0.427761 0.427962 0.428186 0.428433 0.428702 0.428997 0.429319 0.429671 0.430058 0.430485 0.430961 0.4315 0.432116 0.432834 0.433683 0.434706 0.435958 0.437517 0.43948 0.441984 0.445207 0.449389 0.454845 0.461994 0.471387 0.483748 0.500013 0.521392 0.549397 0.585876 0.632946 0.692819 0.767354 0.857335 0.961469 1.07555 1.1924 1.30324 1.4002 1.47854 1.53747 1.57924 1.60745 1.62584 1.63745 1.64459 1.64883 1.65122 1.65244 1.65292 1.65294 1.65267 1.65221 1.65165 1.65101 1.65034 1.64963 1.64892 1.64819 1.64748 1.64676 1.64605 1.64535 1.64466 1.64398 1.64332 1.64266 1.64203 1.64141 1.64081 1.64023 1.63967 1.63912 1.63861 1.63811 1.63764 1.63718 1.63676 1.63636 1.63599 1.63564 1.63533 1.63504 1.63478 1.63455 1.63436 1.63418 1.63405 1.63394 1.63386 1.63381 1.6338 1.63382 1.63387 1.63394 1.63406 1.6342 1.63437 1.63457 1.63481 1.63506 1.63536 1.63567 1.63602 1.6364 1.6368 1.63722 1.63768 1.63815 1.63865 1.63917 1.63972 1.64028 1.64087 1.64147 1.64209 1.64272 1.64338 1.64404 1.64473 1.64541 1.64612 1.64683 1.64755 1.64827 1.64899 1.6497 1.65041 1.65109 1.65172 1.65229 1.65274 1.653 1.65298 1.65248 1.65124 1.64881 1.64452 1.6373 1.62555 1.60698 1.57849 1.53637 1.477 1.3982 1.30086 1.18978 1.07291 0.959002 0.855176 0.765566 0.691405 0.63187 0.585088 0.548846 0.521031 0.499802 0.483655 0.471387 0.462068 0.454978 0.44957 0.445427 0.442237 0.439761 0.437823 0.436287 0.435055 0.43405 0.433218 0.432516 0.431916 0.431391 0.430928 0.430513 0.430138 0.429796 0.429483 0.429195 0.428931 0.428689 0.428468 0.428267 0.428086 0.427925 0.427783 0.427661 0.427558 0.427476 0.427413 0.42737 0.427349 0.426892 0.426917 0.426965 0.427037 0.427132 0.427249 0.427388 0.427549 0.427732 0.427937 0.428163 0.428413 0.428685 0.428981 0.429304 0.429655 0.43004 0.430463 0.430933 0.431462 0.432064 0.432762 0.433584 0.434569 0.435768 0.437254 0.439119 0.44149 0.444532 0.448468 0.453592 0.460294 0.469083 0.480634 0.495817 0.515757 0.541871 0.575902 0.61988 0.675988 0.746201 0.831654 0.931711 1.04306 1.15935 1.27219 1.37329 1.45696 1.52129 1.56775 1.59964 1.62071 1.63419 1.64258 1.64765 1.65059 1.65216 1.65288 1.65305 1.65289 1.65251 1.652 1.6514 1.65075 1.65007 1.64938 1.64867 1.64797 1.64727 1.64658 1.64589 1.64522 1.64455 1.6439 1.64326 1.64264 1.64204 1.64145 1.64088 1.64033 1.6398 1.6393 1.63881 1.63835 1.63791 1.6375 1.63711 1.63675 1.63641 1.6361 1.63582 1.63557 1.63534 1.63515 1.63498 1.63485 1.63474 1.63467 1.63462 1.63461 1.63462 1.63467 1.63475 1.63486 1.63499 1.63516 1.63536 1.63559 1.63584 1.63613 1.63644 1.63678 1.63714 1.63753 1.63795 1.63839 1.63885 1.63934 1.63985 1.64039 1.64093 1.64151 1.64209 1.6427 1.64332 1.64397 1.64461 1.64528 1.64596 1.64665 1.64734 1.64805 1.64875 1.64945 1.65014 1.65083 1.65147 1.65207 1.65258 1.65296 1.65311 1.65293 1.6522 1.6506 1.64762 1.64249 1.63399 1.62037 1.59909 1.5669 1.52006 1.45529 1.37118 1.26973 1.15672 1.04046 0.929333 0.829606 0.744525 0.674675 0.618889 0.575184 0.541375 0.515438 0.495637 0.480565 0.469102 0.460382 0.453736 0.448657 0.444758 0.441748 0.439405 0.437564 0.4361 0.43492 0.433953 0.433149 0.432467 0.43188 0.431365 0.430909 0.430497 0.430124 0.429783 0.429469 0.42918 0.428914 0.428668 0.428444 0.42824 0.428055 0.42789 0.427745 0.427619 0.427514 0.427428 0.427363 0.427319 0.427297 0.426844 0.42687 0.42692 0.426993 0.42709 0.42721 0.427352 0.427516 0.427702 0.427909 0.428139 0.42839 0.428664 0.428962 0.429285 0.429636 0.430018 0.43