# vtk DataFile Version 3.0
Immiscible displacement
ASCII
DATASET RECTILINEAR_GRID
DIMENSIONS 200 200 1
X_COORDINATES 200 double
1 2 3 4 5 6 7 8 9 10 11 12 13 14 15 16 17 18 19 20 21 22 23 24 25 26 27 28 29 30 31 32 33 34 35 36 37 38 39 40 41 42 43 44 45 46 47 48 49 50 51 52 53 54 55 56 57 58 59 60 61 62 63 64 65 66 67 68 69 70 71 72 73 74 75 76 77 78 79 80 81 82 83 84 85 86 87 88 89 90 91 92 93 94 95 96 97 98 99 100 101 102 103 104 105 106 107 108 109 110 111 112 113 114 115 116 117 118 119 120 121 122 123 124 125 126 127 128 129 130 131 132 133 134 135 136 137 138 139 140 141 142 143 144 145 146 147 148 149 150 151 152 153 154 155 156 157 158 159 160 161 162 163 164 165 166 167 168 169 170 171 172 173 174 175 176 177 178 179 180 181 182 183 184 185 186 187 188 189 190 191 192 193 194 195 196 197 198 199 200 
Y_COORDINATES 200 double
1 2 3 4 5 6 7 8 9 10 11 12 13 14 15 16 17 18 19 20 21 22 23 24 25 26 27 28 29 30 31 32 33 34 35 36 37 38 39 40 41 42 43 44 45 46 47 48 49 50 51 52 53 54 55 56 57 58 59 60 61 62 63 64 65 66 67 68 69 70 71 72 73 74 75 76 77 78 79 80 81 82 83 84 85 86 87 88 89 90 91 92 93 94 95 96 97 98 99 100 101 102 103 104 105 106 107 108 109 110 111 112 113 114 115 116 117 118 119 120 121 122 123 124 125 126 127 128 129 130 131 132 133 134 135 136 137 138 139 140 141 142 143 144 145 146 147 148 149 150 151 152 153 154 155 156 157 158 159 160 161 162 163 164 165 166 167 168 169 170 171 172 173 174 175 176 177 178 179 180 181 182 183 184 185 186 187 188 189 190 191 192 193 194 195 196 197 198 199 200 
Z_COORDINATES 1 double
0
POINT_DATA 40000
SCALARS rho double 1
LOOKUP_TABLE default
0.429926 0.429953 0.429987 0.430019 0.430044 0.430062 0.430072 0.430076 0.430074 0.43007 0.430066 0.430065 0.430071 0.430089 0.430123 0.430183 0.430277 0.430417 0.430617 0.430901 0.431292 0.43183 0.432559 0.433544 0.434869 0.436646 0.439025 0.442207 0.446457 0.452132 0.459703 0.469801 0.483251 0.501139 0.524866 0.556199 0.597279 0.650537 0.718382 0.802584 0.903245 1.0176 1.13931 1.25913 1.36736 1.45698 1.52541 1.57421 1.60719 1.62863 1.64219 1.65063 1.65582 1.65899 1.66092 1.66209 1.66279 1.66321 1.66345 1.66359 1.66366 1.6637 1.66371 1.6637 1.66369 1.66367 1.66364 1.66362 1.66358 1.66356 1.66352 1.66349 1.66346 1.66343 1.6634 1.66337 1.66334 1.66331 1.66328 1.66325 1.66322 1.6632 1.66317 1.66315 1.66312 1.6631 1.66308 1.66306 1.66304 1.66302 1.663 1.66299 1.66298 1.66297 1.66296 1.66295 1.66294 1.66294 1.66293 1.66293 1.66293 1.66294 1.66294 1.66295 1.66295 1.66296 1.66297 1.66298 1.66299 1.66301 1.66303 1.66305 1.66307 1.66309 1.66311 1.66314 1.66316 1.66319 1.66321 1.66324 1.66327 1.6633 1.66333 1.66336 1.66339 1.66343 1.66346 1.66349 1.66352 1.66356 1.66359 1.66362 1.66365 1.66368 1.6637 1.66372 1.66373 1.66372 1.66369 1.66362 1.66348 1.66324 1.66282 1.66212 1.66095 1.65901 1.65583 1.65061 1.64213 1.6285 1.60697 1.57385 1.52486 1.45621 1.36637 1.25797 1.13808 1.01641 0.902166 0.801672 0.717649 0.649973 0.596859 0.555896 0.524655 0.500999 0.483162 0.469749 0.459676 0.452121 0.446454 0.442206 0.439022 0.436638 0.434851 0.433516 0.432518 0.431775 0.431223 0.430816 0.430518 0.430302 0.430147 0.43004 0.429967 0.42992 0.429892 0.429877 0.429871 0.429871 0.429872 0.429874 0.429872 0.429867 0.429855 0.429837 0.429811 0.429781 0.429748 0.429722 0.429966 0.429986 0.430013 0.43004 0.430062 0.430077 0.430085 0.430088 0.430085 0.430081 0.430076 0.430075 0.43008 0.430098 0.430132 0.430192 0.430284 0.430424 0.430623 0.430905 0.431294 0.43183 0.432554 0.433535 0.434853 0.436622 0.438988 0.442154 0.446381 0.452027 0.459556 0.469598 0.482971 0.500757 0.524345 0.555496 0.59634 0.649301 0.716788 0.800598 0.900876 1.01494 1.13654 1.25647 1.36504 1.45512 1.52404 1.57326 1.60656 1.62822 1.64194 1.65048 1.65573 1.65894 1.66089 1.66207 1.66278 1.6632 1.66345 1.66359 1.66367 1.66371 1.66371 1.66371 1.6637 1.66368 1.66365 1.66363 1.6636 1.66357 1.66354 1.66352 1.66348 1.66346 1.66342 1.6634 1.66336 1.66334 1.66331 1.66328 1.66325 1.66323 1.6632 1.66318 1.66316 1.66314 1.66311 1.6631 1.66308 1.66307 1.66305 1.66304 1.66302 1.66301 1.663 1.663 1.66299 1.66299 1.66298 1.66298 1.66298 1.66298 1.66298 1.66299 1.66299 1.66301 1.66301 1.66303 1.66304 1.66306 1.66307 1.66309 1.6631 1.66313 1.66315 1.66317 1.66319 1.66322 1.66324 1.66327 1.6633 1.66333 1.66336 1.66339 1.66342 1.66345 1.66348 1.66351 1.66354 1.66358 1.6636 1.66364 1.66366 1.66369 1.66371 1.66373 1.66373 1.66373 1.66369 1.66362 1.66348 1.66323 1.6628 1.6621 1.66091 1.65896 1.65573 1.65046 1.64188 1.6281 1.60634 1.5729 1.52349 1.45435 1.36406 1.25533 1.13532 1.01376 0.899807 0.799695 0.716063 0.648742 0.595924 0.555197 0.524136 0.500618 0.482882 0.469545 0.459528 0.452014 0.446377 0.442152 0.438984 0.436612 0.434834 0.433506 0.432512 0.431773 0.431224 0.43082 0.430522 0.430308 0.430154 0.430048 0.429975 0.429929 0.429901 0.429887 0.429881 0.429881 0.429883 0.429885 0.429884 0.42988 0.42987 0.429854 0.429832 0.429806 0.429779 0.42976 0.430027 0.43004 0.430059 0.430079 0.430095 0.430106 0.430111 0.430111 0.430107 0.430101 0.430095 0.430093 0.430097 0.430114 0.430147 0.430206 0.430296 0.430434 0.430631 0.43091 0.431295 0.431824 0.432542 0.433513 0.434817 0.436568 0.438911 0.442044 0.446227 0.451812 0.45926 0.469192 0.482416 0.500003 0.523323 0.554122 0.594509 0.646897 0.713698 0.796746 0.896282 1.00978 1.13113 1.25127 1.36047 1.45144 1.52129 1.57134 1.60528 1.6274 1.64142 1.65016 1.65553 1.65882 1.66081 1.66202 1.66275 1.66319 1.66344 1.66359 1.66367 1.66371 1.66372 1.66373 1.66371 1.6637 1.66367 1.66365 1.66362 1.6636 1.66357 1.66355 1.66352 1.66349 1.66346 1.66344 1.66341 1.66338 1.66335 1.66333 1.6633 1.66329 1.66326 1.66324 1.66322 1.6632 1.66318 1.66316 1.66314 1.66313 1.66311 1.6631 1.66309 1.66308 1.66307 1.66307 1.66306 1.66306 1.66305 1.66305 1.66305 1.66305 1.66305 1.66306 1.66306 1.66308 1.66308 1.6631 1.6631 1.66312 1.66313 1.66315 1.66316 1.66319 1.6632 1.66323 1.66325 1.66327 1.66329 1.66332 1.66334 1.66337 1.6634 1.66343 1.66345 1.66349 1.66351 1.66355 1.66357 1.6636 1.66363 1.66366 1.66368 1.66371 1.66373 1.66374 1.66374 1.66373 1.66369 1.66362 1.66347 1.66322 1.66278 1.66205 1.66084 1.65883 1.65553 1.65014 1.64136 1.62727 1.60505 1.57097 1.52074 1.45067 1.35949 1.25014 1.12993 1.00861 0.895232 0.79586 0.712987 0.646349 0.594102 0.553828 0.523118 0.499865 0.482328 0.469139 0.459231 0.451798 0.44622 0.44204 0.438904 0.436556 0.434796 0.433481 0.432497 0.431766 0.431222 0.430822 0.430528 0.430317 0.430165 0.43006 0.429989 0.429944 0.429917 0.429904 0.429899 0.4299 0.429903 0.429906 0.429907 0.429905 0.429898 0.429886 0.42987 0.42985 0.429831 0.429819 0.430101 0.430108 0.43012 0.430132 0.430141 0.430147 0.430147 0.430143 0.430136 0.430128 0.43012 0.430116 0.430119 0.430134 0.430166 0.430222 0.430311 0.430445 0.430638 0.430912 0.43129 0.431811 0.432518 0.433474 0.434758 0.436483 0.438789 0.441874 0.445992 0.451489 0.458819 0.46859 0.481599 0.498896 0.521831 0.552121 0.591849 0.643407 0.709214 0.791157 0.889605 1.00224 1.12321 1.24362 1.35369 1.44593 1.51716 1.56843 1.60332 1.62613 1.64062 1.64966 1.65522 1.65863 1.6607 1.66196 1.66271 1.66317 1.66343 1.66359 1.66367 1.66372 1.66374 1.66374 1.66373 1.66372 1.6637 1.66368 1.66365 1.66363 1.6636 1.66358 1.66355 1.66353 1.66351 1.66348 1.66346 1.66344 1.66341 1.66339 1.66336 1.66335 1.66332 1.66331 1.66328 1.66327 1.66325 1.66324 1.66322 1.66321 1.66319 1.66318 1.66317 1.66316 1.66315 1.66315 1.66314 1.66314 1.66313 1.66314 1.66313 1.66314 1.66314 1.66315 1.66315 1.66316 1.66316 1.66318 1.66318 1.6632 1.66321 1.66323 1.66324 1.66326 1.66327 1.6633 1.66331 1.66334 1.66335 1.66338 1.6634 1.66343 1.66345 1.66348 1.6635 1.66353 1.66355 1.66358 1.6636 1.66363 1.66366 1.66369 1.6637 1.66373 1.66374 1.66376 1.66375 1.66374 1.6637 1.66362 1.66346 1.66319 1.66274 1.66198 1.66072 1.65864 1.65522 1.64963 1.64055 1.626 1.60309 1.56806 1.5166 1.44517 1.35272 1.24249 1.12203 1.0011 0.888581 0.790295 0.708523 0.642875 0.591453 0.551835 0.521631 0.498762 0.481512 0.468538 0.458789 0.451474 0.445984 0.441868 0.43878 0.436467 0.434734 0.433439 0.43247 0.431751 0.431215 0.430822 0.430533 0.430326 0.430177 0.430075 0.430006 0.429963 0.429938 0.429926 0.429923 0.429926 0.42993 0.429936 0.42994 0.429941 0.429938 0.429931 0.429921 0.429909 0.429897 0.42989 0.430181 0.430184 0.430189 0.430194 0.430196 0.430196 0.430191 0.430183 0.430172 0.430161 0.430151 0.430145 0.430145 0.430158 0.430186 0.43024 0.430325 0.430455 0.430643 0.43091 0.43128 0.431789 0.432481 0.433417 0.434675 0.436365 0.438625 0.441647 0.44568 0.451064 0.458241 0.467806 0.480538 0.497464 0.519905 0.549543 0.588427 0.638922 0.70345 0.783962 0.880988 0.992478 1.1129 1.23357 1.34472 1.4386 1.51161 1.56448 1.60066 1.62439 1.63951 1.64896 1.65479 1.65836 1.66053 1.66186 1.66265 1.66313 1.66341 1.66358 1.66367 1.66373 1.66375 1.66376 1.66375 1.66374 1.66372 1.66371 1.66368 1.66367 1.66364 1.66362 1.6636 1.66358 1.66355 1.66354 1.66351 1.66349 1.66347 1.66345 1.66343 1.66341 1.66339 1.66338 1.66336 1.66335 1.66333 1.66332 1.6633 1.66329 1.66328 1.66327 1.66326 1.66325 1.66324 1.66324 1.66323 1.66323 1.66322 1.66323 1.66322 1.66323 1.66323 1.66324 1.66324 1.66325 1.66325 1.66326 1.66327 1.66328 1.66329 1.66331 1.66332 1.66333 1.66335 1.66337 1.66338 1.6634 1.66342 1.66344 1.66346 1.66348 1.6635 1.66353 1.66355 1.66357 1.66359 1.66362 1.66364 1.66367 1.66369 1.66371 1.66373 1.66375 1.66376 1.66377 1.66376 1.66375 1.6637 1.66361 1.66344 1.66316 1.66268 1.66188 1.66056 1.65838 1.65479 1.64893 1.63944 1.62426 1.60042 1.56411 1.51105 1.43783 1.34376 1.23246 1.11173 0.991363 0.879994 0.783129 0.702784 0.63841 0.588046 0.549268 0.519713 0.497334 0.480454 0.467755 0.458211 0.451047 0.44567 0.441638 0.438613 0.436347 0.434648 0.433379 0.432431 0.431726 0.431202 0.430817 0.430536 0.430333 0.430189 0.430091 0.430025 0.429985 0.429962 0.429952 0.429951 0.429956 0.429963 0.429972 0.429979 0.429984 0.429986 0.429985 0.429981 0.429976 0.42997 0.429967 0.430264 0.430264 0.430264 0.430262 0.430258 0.430251 0.430241 0.430228 0.430213 0.430199 0.430185 0.430176 0.430173 0.430183 0.430208 0.430258 0.430338 0.430463 0.430644 0.430903 0.431262 0.431757 0.432431 0.433343 0.434569 0.436216 0.438419 0.441366 0.445297 0.450544 0.457537 0.466856 0.479256 0.495738 0.517587 0.546446 0.584318 0.633538 0.696526 0.775301 0.870577 0.98062 1.10028 1.22118 1.33357 1.42939 1.50457 1.55945 1.59723 1.62214 1.63807 1.64805 1.65422 1.65801 1.66032 1.66172 1.66257 1.66308 1.66339 1.66357 1.66367 1.66373 1.66375 1.66377 1.66376 1.66376 1.66374 1.66373 1.66371 1.6637 1.66368 1.66366 1.66364 1.66362 1.6636 1.66359 1.66356 1.66355 1.66353 1.66352 1.66349 1.66348 1.66346 1.66345 1.66343 1.66342 1.66341 1.6634 1.66338 1.66338 1.66336 1.66336 1.66335 1.66334 1.66333 1.66333 1.66332 1.66332 1.66332 1.66332 1.66332 1.66332 1.66332 1.66333 1.66333 1.66334 1.66334 1.66335 1.66335 1.66337 1.66337 1.66339 1.66339 1.66341 1.66342 1.66344 1.66345 1.66347 1.66348 1.6635 1.66352 1.66354 1.66356 1.66358 1.6636 1.66362 1.66364 1.66366 1.66368 1.6637 1.66372 1.66374 1.66375 1.66377 1.66378 1.66378 1.66377 1.66375 1.66369 1.6636 1.66341 1.66311 1.6626 1.66175 1.66034 1.65802 1.65422 1.64802 1.638 1.622 1.59699 1.55907 1.50401 1.42862 1.33261 1.22008 1.09914 0.979538 0.869619 0.7745 0.695888 0.633049 0.583955 0.546184 0.517404 0.495614 0.479176 0.466806 0.457508 0.450527 0.445286 0.441355 0.438405 0.436195 0.434539 0.433302 0.432377 0.431691 0.431181 0.430807 0.430534 0.430339 0.4302 0.430106 0.430044 0.430007 0.429987 0.429981 0.429982 0.42999 0.430001 0.430012 0.430023 0.430033 0.43004 0.430045 0.430047 0.430048 0.430047 0.430047 0.430349 0.430346 0.43034 0.430333 0.430323 0.43031 0.430294 0.430277 0.430258 0.430239 0.430221 0.430208 0.430202 0.430208 0.43023 0.430275 0.43035 0.430468 0.430641 0.43089 0.431237 0.431716 0.432367 0.433251 0.434441 0.436039 0.438176 0.441035 0.44485 0.44994 0.456722 0.465757 0.477777 0.493751 0.514923 0.542889 0.579603 0.627356 0.688564 0.765316 0.858525 0.966809 1.08547 1.20649 1.32021 1.41824 1.49598 1.55325 1.59298 1.61933 1.63625 1.6469 1.6535 1.65756 1.66004 1.66155 1.66246 1.66302 1.66335 1.66355 1.66366 1.66373 1.66376 1.66378 1.66378 1.66378 1.66377 1.66376 1.66374 1.66373 1.66371 1.6637 1.66368 1.66367 1.66365 1.66364 1.66362 1.66361 1.66359 1.66358 1.66356 1.66355 1.66353 1.66352 1.66351 1.6635 1.66348 1.66348 1.66346 1.66346 1.66345 1.66344 1.66343 1.66343 1.66342 1.66342 1.66341 1.66342 1.66341 1.66341 1.66341 1.66341 1.66341 1.66342 1.66342 1.66342 1.66343 1.66344 1.66344 1.66345 1.66345 1.66347 1.66347 1.66349 1.66349 1.66351 1.66352 1.66354 1.66355 1.66357 1.66358 1.6636 1.66361 1.66363 1.66364 1.66366 1.66368 1.6637 1.66371 1.66373 1.66375 1.66377 1.66378 1.66379 1.66379 1.6638 1.66378 1.66375 1.66369 1.66358 1.66338 1.66305 1.66249 1.66158 1.66006 1.65757 1.65349 1.64687 1.63618 1.61919 1.59273 1.55286 1.4954 1.41747 1.31926 1.20542 1.08436 0.965765 0.857606 0.764553 0.687958 0.626893 0.579259 0.542641 0.51475 0.493634 0.477702 0.46571 0.456693 0.449922 0.444837 0.441022 0.438159 0.436015 0.434408 0.433207 0.432311 0.431646 0.431153 0.430792 0.430529 0.430341 0.430209 0.430121 0.430063 0.43003 0.430014 0.430011 0.430016 0.430027 0.43004 0.430056 0.430071 0.430086 0.430098 0.430108 0.430116 0.430122 0.430126 0.430129 0.430432 0.430427 0.430418 0.430405 0.430389 0.430371 0.43035 0.430328 0.430304 0.43028 0.430259 0.430242 0.430232 0.430234 0.430251 0.430291 0.43036 0.430471 0.430635 0.430872 0.431204 0.431664 0.432292 0.433145 0.434292 0.435835 0.437899 0.440661 0.444345 0.44926 0.455808 0.464529 0.476128 0.491537 0.511959 0.538934 0.57436 0.62048 0.679693 0.754158 0.844991 0.951192 1.06857 1.18956 1.30463 1.40508 1.48572 1.54577 1.58781 1.61589 1.63402 1.64548 1.6526 1.657 1.65969 1.66133 1.66233 1.66294 1.6633 1.66352 1.66365 1.66373 1.66377 1.66379 1.66379 1.6638 1.66379 1.66378 1.66377 1.66376 1.66374 1.66374 1.66372 1.66371 1.66369 1.66368 1.66367 1.66366 1.66364 1.66363 1.66362 1.66361 1.6636 1.66359 1.66358 1.66357 1.66356 1.66356 1.66354 1.66354 1.66353 1.66353 1.66352 1.66352 1.66351 1.66351 1.6635 1.6635 1.6635 1.6635 1.6635 1.6635 1.6635 1.66351 1.6635 1.66351 1.66351 1.66352 1.66352 1.66353 1.66353 1.66354 1.66355 1.66356 1.66357 1.66358 1.66359 1.6636 1.66361 1.66362 1.66363 1.66365 1.66366 1.66368 1.66369 1.66371 1.66372 1.66374 1.66375 1.66376 1.66377 1.66379 1.6638 1.66381 1.66381 1.66381 1.66378 1.66375 1.66367 1.66355 1.66333 1.66297 1.66236 1.66136 1.65971 1.65701 1.6526 1.64545 1.63394 1.61574 1.58755 1.54537 1.48513 1.4043 1.30368 1.1885 1.0675 0.950189 0.844115 0.753434 0.679121 0.620043 0.574038 0.538703 0.511798 0.491429 0.476057 0.464485 0.455781 0.449243 0.444331 0.440646 0.437881 0.435809 0.434256 0.433097 0.432232 0.431591 0.431117 0.43077 0.430519 0.43034 0.430216 0.430133 0.430081 0.430053 0.43004 0.430041 0.43005 0.430064 0.430082 0.430102 0.430121 0.43014 0.430157 0.430173 0.430186 0.430196 0.430204 0.430209 0.430513 0.430506 0.430493 0.430476 0.430456 0.430432 0.430406 0.430379 0.43035 0.430323 0.430297 0.430276 0.430261 0.430258 0.43027 0.430304 0.430367 0.430469 0.430623 0.430848 0.431164 0.431604 0.432206 0.433024 0.434126 0.435609 0.437593 0.440249 0.443791 0.448517 0.454811 0.463191 0.474333 0.489132 0.508741 0.534643 0.568672 0.613013 0.670043 0.741978 0.83014 0.933926 1.0497 1.17042 1.28678 1.3898 1.47366 1.53689 1.58161 1.61174 1.63132 1.64375 1.6515 1.65631 1.65925 1.66106 1.66216 1.66284 1.66324 1.66349 1.66363 1.66372 1.66377 1.6638 1.6638 1.66381 1.66381 1.6638 1.66379 1.66379 1.66378 1.66377 1.66376 1.66375 1.66374 1.66373 1.66371 1.66371 1.6637 1.66369 1.66368 1.66367 1.66366 1.66366 1.66364 1.66364 1.66363 1.66363 1.66362 1.66362 1.66361 1.66361 1.6636 1.6636 1.66359 1.66359 1.66359 1.66359 1.66358 1.66359 1.66358 1.66359 1.66358 1.66359 1.66359 1.66359 1.66359 1.6636 1.6636 1.66361 1.66361 1.66362 1.66362 1.66363 1.66363 1.66364 1.66365 1.66366 1.66367 1.66368 1.66369 1.6637 1.66371 1.66372 1.66373 1.66375 1.66375 1.66377 1.66378 1.66379 1.6638 1.66381 1.66382 1.66382 1.66382 1.66381 1.66379 1.66374 1.66365 1.66351 1.66327 1.66286 1.66219 1.66109 1.65927 1.65632 1.6515 1.64371 1.63123 1.61158 1.58134 1.53647 1.47306 1.38902 1.28584 1.16939 1.04866 0.932967 0.829309 0.741295 0.669506 0.612605 0.568372 0.534429 0.508593 0.489033 0.474269 0.463151 0.454786 0.4485 0.443777 0.440233 0.437573 0.43558 0.434087 0.432974 0.432143 0.431528 0.431074 0.430743 0.430504 0.430336 0.43022 0.430144 0.430097 0.430074 0.430066 0.430071 0.430084 0.430102 0.430124 0.430148 0.430171 0.430195 0.430217 0.430237 0.430254 0.430269 0.430281 0.430287 0.430591 0.430582 0.430566 0.430545 0.43052 0.430492 0.430462 0.43043 0.430397 0.430364 0.430334 0.430309 0.43029 0.430282 0.430288 0.430316 0.430371 0.430465 0.430608 0.430819 0.431119 0.431537 0.43211 0.432891 0.433944 0.435363 0.437263 0.439805 0.443197 0.447721 0.453745 0.461763 0.47242 0.486571 0.505317 0.530079 0.562619 0.60506 0.659742 0.728931 0.814143 0.915177 1.02899 1.14914 1.26664 1.37231 1.45965 1.52644 1.57426 1.60677 1.62806 1.64165 1.65017 1.65546 1.65872 1.66073 1.66195 1.6627 1.66316 1.66344 1.6636 1.66371 1.66376 1.6638 1.66381 1.66383 1.66382 1.66382 1.66382 1.66381 1.6638 1.6638 1.66379 1.66379 1.66377 1.66377 1.66376 1.66376 1.66375 1.66374 1.66373 1.66373 1.66372 1.66372 1.66371 1.66371 1.6637 1.6637 1.66369 1.66369 1.66368 1.66368 1.66368 1.66368 1.66367 1.66367 1.66367 1.66367 1.66366 1.66367 1.66366 1.66367 1.66366 1.66367 1.66367 1.66367 1.66367 1.66367 1.66367 1.66368 1.66368 1.66369 1.66369 1.6637 1.6637 1.66371 1.66371 1.66372 1.66372 1.66373 1.66374 1.66375 1.66375 1.66377 1.66377 1.66378 1.66379 1.6638 1.66381 1.66382 1.66382 1.66383 1.66383 1.66384 1.66383 1.66382 1.66378 1.66373 1.66363 1.66347 1.66319 1.66273 1.66198 1.66075 1.65874 1.65547 1.65016 1.6416 1.62796 1.6066 1.57397 1.52601 1.45904 1.37152 1.26571 1.14813 1.02799 0.914263 0.813358 0.728292 0.659242 0.604682 0.562343 0.529882 0.505181 0.486481 0.472362 0.461727 0.453722 0.447705 0.443183 0.439789 0.437241 0.435333 0.433904 0.432838 0.432044 0.431457 0.431025 0.430712 0.430486 0.430329 0.430221 0.430153 0.430112 0.430094 0.430091 0.4301 0.430117 0.43014 0.430166 0.430193 0.430221 0.430249 0.430275 0.4303 0.430321 0.43034 0.430354 0.430362 0.430664 0.430653 0.430635 0.430611 0.430582 0.43055 0.430515 0.430479 0.430441 0.430405 0.43037 0.43034 0.430317 0.430304 0.430304 0.430325 0.430373 0.430457 0.430589 0.430786 0.431067 0.431462 0.432005 0.432747 0.43375 0.435102 0.436912 0.439336 0.44257 0.446883 0.452624 0.460264 0.470414 0.483887 0.501731 0.525299 0.55628 0.596722 0.648921 0.715173 0.797174 0.895121 1.00658 1.1258 1.2442 1.35249 1.44353 1.51426 1.56557 1.60085 1.62415 1.63912 1.64855 1.65444 1.65807 1.66032 1.66169 1.66254 1.66306 1.66338 1.66357 1.66369 1.66375 1.6638 1.66382 1.66384 1.66384 1.66384 1.66384 1.66384 1.66383 1.66383 1.66382 1.66382 1.66381 1.66381 1.6638 1.6638 1.66379 1.66379 1.66378 1.66378 1.66377 1.66377 1.66377 1.66377 1.66376 1.66376 1.66376 1.66376 1.66375 1.66375 1.66375 1.66375 1.66374 1.66375 1.66374 1.66374 1.66374 1.66374 1.66374 1.66374 1.66374 1.66374 1.66374 1.66374 1.66374 1.66375 1.66374 1.66375 1.66375 1.66375 1.66375 1.66376 1.66376 1.66376 1.66376 1.66377 1.66377 1.66378 1.66378 1.66379 1.66379 1.6638 1.66381 1.66382 1.66382 1.66383 1.66383 1.66384 1.66384 1.66385 1.66385 1.66385 1.66383 1.66382 1.66377 1.66371 1.66359 1.6634 1.66309 1.66257 1.66172 1.66034 1.65809 1.65444 1.64854 1.63907 1.62405 1.60067 1.56527 1.51381 1.4429 1.35169 1.24327 1.12482 1.00562 0.894255 0.796438 0.714578 0.648459 0.596374 0.556027 0.52512 0.501609 0.483807 0.470363 0.460232 0.452604 0.446869 0.442556 0.439319 0.436889 0.43507 0.433707 0.432692 0.431937 0.43138 0.430971 0.430675 0.430464 0.430318 0.430219 0.430159 0.430125 0.430112 0.430114 0.430128 0.430149 0.430176 0.430206 0.430238 0.43027 0.430301 0.430332 0.43036 0.430385 0.430407 0.430423 0.430432 0.430732 0.430721 0.4307 0.430673 0.430641 0.430605 0.430566 0.430526 0.430484 0.430444 0.430405 0.43037 0.430342 0.430323 0.430318 0.430333 0.430372 0.430447 0.430567 0.430749 0.431011 0.431382 0.431895 0.432596 0.433546 0.434828 0.436547 0.438848 0.441918 0.446013 0.451462 0.458711 0.468339 0.481113 0.498026 0.520363 0.549731 0.588099 0.637705 0.700859 0.779414 0.873946 0.982644 1.1005 1.21945 1.33024 1.42512 1.50012 1.55537 1.59383 1.61947 1.63607 1.6466 1.65319 1.65728 1.65982 1.66138 1.66234 1.66293 1.6633 1.66352 1.66366 1.66374 1.66379 1.66382 1.66384 1.66385 1.66386 1.66386 1.66386 1.66385 1.66386 1.66385 1.66385 1.66384 1.66385 1.66384 1.66384 1.66383 1.66384 1.66383 1.66383 1.66383 1.66383 1.66382 1.66383 1.66382 1.66382 1.66382 1.66382 1.66382 1.66382 1.66381 1.66382 1.66381 1.66382 1.66381 1.66382 1.66381 1.66381 1.66381 1.66381 1.66381 1.66381 1.66381 1.66381 1.66381 1.66381 1.66381 1.66381 1.66381 1.66381 1.66381 1.66382 1.66381 1.66382 1.66382 1.66382 1.66382 1.66383 1.66383 1.66383 1.66383 1.66384 1.66384 1.66385 1.66385 1.66386 1.66386 1.66386 1.66386 1.66387 1.66386 1.66386 1.66384 1.66381 1.66376 1.66368 1.66354 1.66333 1.66296 1.66237 1.66141 1.65984 1.6573 1.6532 1.64658 1.63602 1.61936 1.59363 1.55505 1.49965 1.42448 1.32944 1.21854 1.09954 0.981729 0.873129 0.778727 0.700308 0.63728 0.587781 0.549502 0.520202 0.497918 0.481043 0.468295 0.458685 0.451446 0.446001 0.441905 0.438831 0.436522 0.434794 0.433502 0.432539 0.431824 0.431298 0.430912 0.430635 0.430439 0.430304 0.430215 0.430163 0.430136 0.430129 0.430136 0.430155 0.43018 0.430211 0.430245 0.43028 0.430316 0.430352 0.430385 0.430417 0.430445 0.430469 0.430488 0.430498 0.430795 0.430782 0.43076 0.430731 0.430696 0.430657 0.430614 0.43057 0.430525 0.43048 0.430437 0.430398 0.430365 0.430341 0.43033 0.430337 0.430369 0.430434 0.430541 0.430709 0.430952 0.431298 0.431779 0.432439 0.433335 0.434546 0.43617 0.438346 0.44125 0.445122 0.450273 0.457124 0.466218 0.47828 0.494244 0.515324 0.543044 0.579284 0.626216 0.686142 0.761044 0.85185 0.957365 1.07336 1.19244 1.30549 1.40424 1.48381 1.54343 1.58551 1.61389 1.63241 1.64423 1.65168 1.65632 1.65921 1.66099 1.6621 1.66278 1.6632 1.66346 1.66362 1.66372 1.66379 1.66382 1.66385 1.66386 1.66387 1.66387 1.66388 1.66387 1.66388 1.66387 1.66388 1.66387 1.66388 1.66387 1.66388 1.66387 1.66388 1.66387 1.66388 1.66387 1.66388 1.66387 1.66388 1.66387 1.66388 1.66387 1.66388 1.66388 1.66388 1.66388 1.66388 1.66388 1.66388 1.66388 1.66388 1.66388 1.66388 1.66387 1.66388 1.66387 1.66388 1.66387 1.66387 1.66387 1.66387 1.66387 1.66387 1.66387 1.66387 1.66386 1.66387 1.66386 1.66387 1.66386 1.66387 1.66386 1.66387 1.66387 1.66387 1.66387 1.66387 1.66387 1.66388 1.66388 1.66388 1.66388 1.66388 1.66388 1.66388 1.66387 1.66386 1.66384 1.6638 1.66374 1.66365 1.66348 1.66323 1.66281 1.66213 1.66102 1.65923 1.65634 1.65168 1.64421 1.63235 1.61376 1.5853 1.54309 1.48332 1.40358 1.30468 1.19154 1.07244 0.956494 0.851084 0.760407 0.685635 0.625829 0.578997 0.542839 0.515181 0.494149 0.478219 0.466181 0.457102 0.45026 0.445111 0.441237 0.438329 0.436145 0.434511 0.433289 0.43238 0.431706 0.431211 0.43085 0.430592 0.43041 0.430288 0.430209 0.430165 0.430144 0.430143 0.430156 0.430179 0.430209 0.430244 0.430281 0.43032 0.43036 0.430399 0.430435 0.43047 0.430501 0.430527 0.430547 0.430559 0.430852 0.430839 0.430815 0.430784 0.430746 0.430704 0.430659 0.430611 0.430562 0.430514 0.430467 0.430424 0.430385 0.430357 0.430339 0.43034 0.430363 0.430418 0.430514 0.430665 0.430889 0.431211 0.431659 0.432278 0.433119 0.434258 0.435787 0.437836 0.440571 0.444218 0.449069 0.455517 0.464073 0.475416 0.490422 0.510233 0.536287 0.570369 0.614572 0.67117 0.742246 0.82904 0.930949 1.04455 1.16323 1.27816 1.38072 1.46508 1.52949 1.57568 1.60721 1.628 1.64137 1.64984 1.65515 1.65846 1.66052 1.6618 1.66258 1.66308 1.66338 1.66358 1.66369 1.66377 1.66381 1.66385 1.66386 1.66388 1.66388 1.66389 1.66389 1.6639 1.6639 1.6639 1.6639 1.66391 1.6639 1.66391 1.66391 1.66391 1.66391 1.66392 1.66391 1.66392 1.66392 1.66392 1.66392 1.66393 1.66393 1.66393 1.66393 1.66393 1.66393 1.66394 1.66393 1.66394 1.66394 1.66394 1.66394 1.66394 1.66393 1.66394 1.66393 1.66393 1.66393 1.66393 1.66393 1.66393 1.66392 1.66392 1.66392 1.66392 1.66391 1.66392 1.66391 1.66391 1.66391 1.66391 1.6639 1.66391 1.6639 1.6639 1.6639 1.6639 1.6639 1.6639 1.6639 1.6639 1.6639 1.6639 1.66389 1.66389 1.66388 1.66386 1.66383 1.66379 1.66371 1.6636 1.66341 1.66311 1.66261 1.66182 1.66054 1.65848 1.65516 1.64984 1.64134 1.62793 1.60707 1.57544 1.52912 1.46456 1.38004 1.27735 1.16234 1.04366 0.930125 0.828325 0.741658 0.670707 0.614221 0.570112 0.536105 0.510109 0.490341 0.475365 0.464043 0.4555 0.449059 0.444209 0.44056 0.437819 0.435761 0.434222 0.433071 0.432217 0.431585 0.431122 0.430785 0.430547 0.43038 0.43027 0.430201 0.430164 0.430151 0.430156 0.430173 0.430201 0.430235 0.430274 0.430315 0.430358 0.4304 0.430442 0.430482 0.430519 0.430552 0.430581 0.430602 0.430614 0.430904 0.43089 0.430865 0.430832 0.430792 0.430748 0.4307 0.430649 0.430597 0.430545 0.430494 0.430446 0.430404 0.43037 0.430347 0.43034 0.430355 0.4304 0.430484 0.43062 0.430825 0.431122 0.431538 0.432115 0.432901 0.433967 0.4354 0.437323 0.439889 0.44331 0.44786 0.453905 0.461924 0.472548 0.486597 0.505139 0.529523 0.561437 0.602882 0.656087 0.7232 0.805729 0.903624 1.01428 1.13193 1.24825 1.35439 1.44368 1.51327 1.56406 1.59924 1.62269 1.6379 1.6476 1.65371 1.65754 1.65993 1.66142 1.66235 1.66293 1.66329 1.66352 1.66366 1.66375 1.6638 1.66385 1.66387 1.66389 1.66389 1.66391 1.66391 1.66392 1.66392 1.66392 1.66392 1.66393 1.66393 1.66394 1.66394 1.66395 1.66395 1.66395 1.66395 1.66396 1.66396 1.66397 1.66397 1.66397 1.66397 1.66398 1.66398 1.66398 1.66398 1.66399 1.66399 1.66399 1.66399 1.66399 1.66399 1.66399 1.66399 1.66399 1.66398 1.66399 1.66398 1.66398 1.66398 1.66398 1.66397 1.66397 1.66396 1.66396 1.66396 1.66396 1.66395 1.66395 1.66394 1.66394 1.66394 1.66394 1.66393 1.66393 1.66393 1.66393 1.66392 1.66392 1.66392 1.66392 1.66391 1.66391 1.6639 1.6639 1.66388 1.66386 1.66382 1.66377 1.66368 1.66354 1.66331 1.66295 1.66237 1.66145 1.65995 1.65756 1.65372 1.64759 1.63786 1.6226 1.59908 1.5638 1.51287 1.44313 1.35369 1.24743 1.13106 1.01343 0.902847 0.805065 0.722661 0.655667 0.602566 0.561208 0.529363 0.505031 0.486529 0.472507 0.461901 0.453894 0.447853 0.443304 0.439879 0.437306 0.435375 0.43393 0.432852 0.432052 0.431461 0.43103 0.430719 0.430499 0.430348 0.43025 0.430191 0.430162 0.430156 0.430166 0.430189 0.430221 0.430259 0.430301 0.430346 0.430392 0.430437 0.430482 0.430525 0.430564 0.430599 0.430629 0.430651 0.430664 0.43095 0.430935 0.430909 0.430875 0.430833 0.430787 0.430736 0.430683 0.430628 0.430573 0.430518 0.430467 0.43042 0.430381 0.430352 0.430339 0.430346 0.430381 0.430452 0.430574 0.430759 0.431031 0.431415 0.431951 0.432682 0.433677 0.435015 0.436811 0.439209 0.442407 0.446657 0.452304 0.459788 0.4697 0.482801 0.500083 0.522809 0.552564 0.591249 0.641029 0.704081 0.782133 0.875633 0.982777 1.09871 1.21579 1.32515 1.41936 1.49445 1.55035 1.5897 1.61627 1.63367 1.64486 1.65194 1.65641 1.6592 1.66096 1.66205 1.66274 1.66316 1.66344 1.66361 1.66372 1.66379 1.66384 1.66387 1.66389 1.6639 1.66392 1.66392 1.66393 1.66393 1.66394 1.66395 1.66395 1.66396 1.66396 1.66397 1.66397 1.66398 1.66398 1.66399 1.66399 1.664 1.664 1.66401 1.66401 1.66401 1.66402 1.66402 1.66403 1.66403 1.66403 1.66403 1.66404 1.66404 1.66404 1.66404 1.66404 1.66404 1.66404 1.66403 1.66403 1.66403 1.66403 1.66402 1.66402 1.66401 1.66401 1.66401 1.66401 1.664 1.664 1.66399 1.66399 1.66398 1.66398 1.66397 1.66397 1.66396 1.66396 1.66395 1.66395 1.66394 1.66394 1.66394 1.66394 1.66393 1.66392 1.66391 1.6639 1.66388 1.66385 1.66381 1.66374 1.66363 1.66346 1.66319 1.66276 1.66208 1.66098 1.65923 1.65642 1.65195 1.64484 1.63362 1.61617 1.58952 1.55006 1.49403 1.41878 1.32443 1.21497 1.09786 0.981962 0.874906 0.78152 0.70359 0.64065 0.590968 0.552363 0.522671 0.499993 0.482745 0.469669 0.459773 0.452297 0.446654 0.442402 0.4392 0.436795 0.434989 0.433639 0.432632 0.431887 0.431337 0.430938 0.430651 0.430451 0.430314 0.430228 0.430179 0.430158 0.430158 0.430175 0.430202 0.430239 0.43028 0.430326 0.430374 0.430423 0.430471 0.430518 0.430563 0.430604 0.430641 0.430672 0.430695 0.430709 0.43099 0.430975 0.430948 0.430913 0.43087 0.430822 0.430769 0.430713 0.430655 0.430597 0.430539 0.430484 0.430433 0.43039 0.430355 0.430336 0.430335 0.43036 0.43042 0.430526 0.430693 0.43094 0.431293 0.431787 0.432465 0.433389 0.434633 0.436305 0.438537 0.441514 0.445471 0.450723 0.457683 0.466894 0.479061 0.495106 0.516198 0.543821 0.579768 0.626121 0.685057 0.758466 0.847234 0.950309 1.0638 1.18088 1.29291 1.39189 1.47272 1.53422 1.57831 1.60851 1.62852 1.64148 1.64976 1.655 1.6583 1.66037 1.66167 1.6625 1.66301 1.66334 1.66354 1.66368 1.66376 1.66382 1.66386 1.66389 1.66391 1.66392 1.66393 1.66394 1.66395 1.66396 1.66396 1.66397 1.66398 1.66399 1.66399 1.664 1.664 1.66401 1.66401 1.66402 1.66403 1.66404 1.66404 1.66405 1.66405 1.66406 1.66406 1.66407 1.66407 1.66407 1.66407 1.66408 1.66408 1.66408 1.66408 1.66408 1.66408 1.66408 1.66407 1.66408 1.66407 1.66407 1.66406 1.66406 1.66405 1.66405 1.66404 1.66404 1.66403 1.66403 1.66402 1.66402 1.66401 1.664 1.664 1.66399 1.66398 1.66398 1.66397 1.66397 1.66396 1.66396 1.66395 1.66395 1.66394 1.66393 1.66392 1.6639 1.66387 1.66384 1.66378 1.6637 1.66357 1.66336 1.66304 1.66252 1.6617 1.6604 1.65832 1.65501 1.64976 1.64146 1.62846 1.60839 1.5781 1.5339 1.47226 1.39128 1.29217 1.18006 1.06298 0.949536 0.846556 0.757904 0.684612 0.625783 0.57952 0.543646 0.516081 0.495031 0.479018 0.466872 0.457674 0.450722 0.445471 0.441512 0.43853 0.436289 0.434607 0.433351 0.432415 0.431723 0.431214 0.430846 0.430583 0.430401 0.43028 0.430206 0.430166 0.430153 0.430159 0.430181 0.430213 0.430254 0.430299 0.430349 0.430399 0.430451 0.430501 0.430551 0.430597 0.43064 0.430678 0.43071 0.430734 0.430748 0.431025 0.431009 0.430982 0.430946 0.430901 0.430852 0.430797 0.430739 0.430679 0.430618 0.4