# vtk DataFile Version 3.0
Immiscible displacement
ASCII
DATASET RECTILINEAR_GRID
DIMENSIONS 200 200 1
X_COORDINATES 200 double
1 2 3 4 5 6 7 8 9 10 11 12 13 14 15 16 17 18 19 20 21 22 23 24 25 26 27 28 29 30 31 32 33 34 35 36 37 38 39 40 41 42 43 44 45 46 47 48 49 50 51 52 53 54 55 56 57 58 59 60 61 62 63 64 65 66 67 68 69 70 71 72 73 74 75 76 77 78 79 80 81 82 83 84 85 86 87 88 89 90 91 92 93 94 95 96 97 98 99 100 101 102 103 104 105 106 107 108 109 110 111 112 113 114 115 116 117 118 119 120 121 122 123 124 125 126 127 128 129 130 131 132 133 134 135 136 137 138 139 140 141 142 143 144 145 146 147 148 149 150 151 152 153 154 155 156 157 158 159 160 161 162 163 164 165 166 167 168 169 170 171 172 173 174 175 176 177 178 179 180 181 182 183 184 185 186 187 188 189 190 191 192 193 194 195 196 197 198 199 200 
Y_COORDINATES 200 double
1 2 3 4 5 6 7 8 9 10 11 12 13 14 15 16 17 18 19 20 21 22 23 24 25 26 27 28 29 30 31 32 33 34 35 36 37 38 39 40 41 42 43 44 45 46 47 48 49 50 51 52 53 54 55 56 57 58 59 60 61 62 63 64 65 66 67 68 69 70 71 72 73 74 75 76 77 78 79 80 81 82 83 84 85 86 87 88 89 90 91 92 93 94 95 96 97 98 99 100 101 102 103 104 105 106 107 108 109 110 111 112 113 114 115 116 117 118 119 120 121 122 123 124 125 126 127 128 129 130 131 132 133 134 135 136 137 138 139 140 141 142 143 144 145 146 147 148 149 150 151 152 153 154 155 156 157 158 159 160 161 162 163 164 165 166 167 168 169 170 171 172 173 174 175 176 177 178 179 180 181 182 183 184 185 186 187 188 189 190 191 192 193 194 195 196 197 198 199 200 
Z_COORDINATES 1 double
0
POINT_DATA 40000
SCALARS rho double 1
LOOKUP_TABLE default
0.434589 0.434486 0.434339 0.434176 0.434012 0.433855 0.433708 0.433575 0.433457 0.433356 0.433272 0.433209 0.433166 0.433149 0.433161 0.433209 0.4333 0.433446 0.43366 0.433964 0.434383 0.434953 0.435721 0.436751 0.438129 0.439971 0.44243 0.445719 0.450115 0.455999 0.463874 0.474418 0.488522 0.507365 0.532465 0.565739 0.60949 0.666286 0.73857 0.827917 0.93385 1.05263 1.17674 1.29615 1.40125 1.48597 1.54904 1.59304 1.62225 1.64101 1.65282 1.6602 1.66482 1.66776 1.66968 1.671 1.67196 1.6727 1.67332 1.67388 1.67439 1.6749 1.67538 1.67587 1.67635 1.67684 1.67733 1.67783 1.67832 1.67881 1.67931 1.6798 1.68029 1.68078 1.68126 1.68174 1.6822 1.68266 1.68311 1.68355 1.68397 1.68438 1.68477 1.68515 1.68551 1.68586 1.68618 1.68649 1.68676 1.68703 1.68726 1.68748 1.68766 1.68783 1.68797 1.68808 1.68817 1.68823 1.68826 1.68828 1.68825 1.68821 1.68814 1.68805 1.68792 1.68777 1.6876 1.6874 1.68718 1.68693 1.68666 1.68638 1.68606 1.68573 1.68538 1.68501 1.68463 1.68423 1.68381 1.68338 1.68294 1.68249 1.68202 1.68155 1.68107 1.68059 1.6801 1.67961 1.67911 1.67862 1.67812 1.67763 1.67713 1.67664 1.67615 1.67567 1.67519 1.6747 1.6742 1.67369 1.67314 1.67252 1.67177 1.67081 1.66948 1.66754 1.66455 1.65987 1.65238 1.64039 1.62135 1.59174 1.54721 1.4835 1.39813 1.29252 1.17287 1.04885 0.930454 0.825065 0.736309 0.664579 0.608261 0.564901 0.531938 0.507081 0.488427 0.47447 0.464041 0.456256 0.450443 0.446103 0.44286 0.440436 0.438623 0.437269 0.436256 0.435502 0.434941 0.434528 0.434227 0.434013 0.433864 0.433768 0.433713 0.433692 0.433697 0.433727 0.433776 0.433844 0.433928 0.434028 0.434143 0.434272 0.434413 0.434565 0.434724 0.434881 0.435022 0.435122 0.434479 0.434399 0.434271 0.434123 0.43397 0.43382 0.433679 0.43355 0.433435 0.433337 0.433255 0.433193 0.433151 0.433136 0.433148 0.433198 0.433289 0.433436 0.43365 0.433955 0.434374 0.434944 0.43571 0.43674 0.438115 0.439953 0.442406 0.445686 0.45007 0.455937 0.463786 0.474295 0.48835 0.507129 0.53214 0.565297 0.608894 0.665498 0.737552 0.826648 0.932342 1.05095 1.175 1.29451 1.39983 1.48484 1.5482 1.59245 1.62185 1.64075 1.65265 1.6601 1.66475 1.66772 1.66965 1.67097 1.67193 1.67268 1.6733 1.67385 1.67436 1.67486 1.67534 1.67583 1.67631 1.6768 1.67728 1.67777 1.67826 1.67875 1.67924 1.67973 1.68021 1.6807 1.68117 1.68165 1.68211 1.68257 1.68301 1.68345 1.68387 1.68428 1.68467 1.68505 1.6854 1.68575 1.68607 1.68637 1.68665 1.68691 1.68714 1.68736 1.68754 1.68771 1.68784 1.68796 1.68804 1.68811 1.68814 1.68815 1.68813 1.68809 1.68801 1.68792 1.68779 1.68765 1.68747 1.68728 1.68706 1.68682 1.68655 1.68626 1.68595 1.68563 1.68527 1.68491 1.68452 1.68413 1.68371 1.68329 1.68284 1.6824 1.68193 1.68147 1.68099 1.68051 1.68002 1.67954 1.67904 1.67856 1.67806 1.67757 1.67708 1.6766 1.67611 1.67563 1.67515 1.67467 1.67417 1.67366 1.67311 1.67249 1.67174 1.67078 1.66944 1.66749 1.66448 1.65976 1.6522 1.64013 1.62095 1.59115 1.54637 1.48237 1.39671 1.29088 1.17114 1.04718 0.928958 0.823808 0.735301 0.6638 0.607671 0.564464 0.531616 0.506847 0.488257 0.474348 0.463953 0.456193 0.450397 0.44607 0.442834 0.440417 0.438608 0.437256 0.436244 0.435491 0.43493 0.434518 0.434216 0.434001 0.433852 0.433756 0.433699 0.433678 0.433683 0.433711 0.433759 0.433826 0.433908 0.434007 0.434118 0.434243 0.434379 0.434524 0.434672 0.434815 0.434938 0.435016 0.43432 0.434258 0.434154 0.434027 0.43389 0.433754 0.433623 0.433502 0.433393 0.4333 0.433221 0.433163 0.433124 0.43311 0.433125 0.433175 0.433268 0.433416 0.433632 0.433937 0.434356 0.434926 0.43569 0.436717 0.438086 0.439916 0.442356 0.445618 0.449975 0.455805 0.463602 0.474038 0.487994 0.506635 0.531461 0.564372 0.607648 0.663849 0.735425 0.823998 0.929199 1.04745 1.1714 1.29111 1.39689 1.4825 1.54647 1.59124 1.62104 1.64022 1.65231 1.65987 1.6646 1.66761 1.66957 1.67091 1.67187 1.67262 1.67324 1.67379 1.6743 1.67479 1.67527 1.67575 1.67622 1.67671 1.67718 1.67767 1.67815 1.67864 1.67912 1.67961 1.68008 1.68057 1.68103 1.68151 1.68196 1.68242 1.68285 1.68328 1.6837 1.68411 1.68449 1.68487 1.68522 1.68556 1.68587 1.68618 1.68645 1.68671 1.68693 1.68715 1.68733 1.6875 1.68763 1.68775 1.68783 1.68789 1.68792 1.68794 1.68791 1.68787 1.6878 1.68771 1.68758 1.68744 1.68726 1.68707 1.68685 1.68661 1.68634 1.68606 1.68575 1.68543 1.68508 1.68473 1.68434 1.68395 1.68354 1.68312 1.68268 1.68224 1.68178 1.68132 1.68085 1.68038 1.67989 1.67941 1.67892 1.67844 1.67795 1.67747 1.67698 1.67651 1.67603 1.67556 1.67508 1.6746 1.67411 1.67361 1.67305 1.67244 1.67168 1.67072 1.66936 1.66738 1.66433 1.65953 1.65185 1.63959 1.62013 1.58993 1.54463 1.48002 1.39376 1.28747 1.16754 1.0437 0.925839 0.821182 0.733195 0.662169 0.606439 0.563549 0.530944 0.506358 0.487903 0.474092 0.463769 0.456061 0.450301 0.446 0.442783 0.440378 0.438576 0.43723 0.436221 0.43547 0.434909 0.434497 0.434195 0.433979 0.433829 0.433732 0.433675 0.433652 0.433655 0.433682 0.433728 0.433792 0.433871 0.433965 0.434071 0.434189 0.434315 0.434447 0.434579 0.434702 0.434803 0.434862 0.434137 0.43409 0.434007 0.433901 0.433783 0.433663 0.433545 0.433435 0.433334 0.433247 0.433174 0.43312 0.433084 0.433074 0.433091 0.433144 0.433239 0.433388 0.433605 0.433911 0.434329 0.434898 0.435659 0.43668 0.438041 0.439858 0.442278 0.445512 0.449828 0.455599 0.463315 0.473639 0.487439 0.505869 0.530408 0.562937 0.605717 0.661294 0.732128 0.819892 0.924325 1.04202 1.16579 1.2858 1.3923 1.47885 1.54377 1.58935 1.61977 1.63938 1.65176 1.65951 1.66436 1.66745 1.66945 1.67081 1.67179 1.67254 1.67316 1.67371 1.67421 1.6747 1.67517 1.67564 1.6761 1.67658 1.67705 1.67753 1.678 1.67848 1.67895 1.67944 1.6799 1.68038 1.68084 1.68131 1.68175 1.6822 1.68263 1.68306 1.68346 1.68387 1.68424 1.68462 1.68496 1.6853 1.68561 1.68591 1.68618 1.68643 1.68666 1.68687 1.68705 1.68721 1.68734 1.68746 1.68754 1.6876 1.68763 1.68765 1.68762 1.68759 1.68751 1.68742 1.6873 1.68716 1.68698 1.6868 1.68657 1.68634 1.68607 1.6858 1.68549 1.68518 1.68483 1.68448 1.6841 1.68372 1.68331 1.6829 1.68246 1.68203 1.68157 1.68112 1.68065 1.68019 1.67971 1.67924 1.67876 1.67829 1.6778 1.67733 1.67685 1.67638 1.67591 1.67545 1.67497 1.67451 1.67402 1.67352 1.67297 1.67236 1.6716 1.67062 1.66924 1.66722 1.66409 1.65917 1.65131 1.63874 1.61885 1.58802 1.54191 1.47635 1.38915 1.28216 1.16195 1.0383 0.920999 0.817111 0.72993 0.65964 0.604528 0.562129 0.529902 0.505599 0.487353 0.473696 0.463484 0.455855 0.450153 0.445892 0.442702 0.440317 0.438528 0.43719 0.436187 0.435439 0.43488 0.434468 0.434165 0.433949 0.433798 0.433699 0.43364 0.433616 0.433616 0.433641 0.433684 0.433744 0.433818 0.433906 0.434004 0.434112 0.434226 0.434343 0.434457 0.43456 0.43464 0.434685 0.433945 0.433909 0.433843 0.433757 0.433657 0.433553 0.433449 0.433351 0.43326 0.433181 0.433115 0.433066 0.433035 0.433029 0.433049 0.433105 0.433201 0.433353 0.433571 0.433878 0.434295 0.434861 0.435618 0.436631 0.437979 0.439777 0.442171 0.445365 0.449624 0.455317 0.462922 0.473092 0.48668 0.50482 0.528969 0.560978 0.603082 0.657809 0.727629 0.814282 0.917655 1.03456 1.15807 1.27846 1.38593 1.47377 1.54001 1.58671 1.61799 1.63822 1.65101 1.65902 1.66403 1.66722 1.66928 1.67068 1.67167 1.67243 1.67305 1.6736 1.67409 1.67458 1.67504 1.6755 1.67596 1.67642 1.67688 1.67735 1.67781 1.67829 1.67875 1.67922 1.67968 1.68015 1.6806 1.68106 1.6815 1.68194 1.68236 1.68278 1.68318 1.68358 1.68395 1.68432 1.68465 1.68499 1.68529 1.68559 1.68585 1.6861 1.68632 1.68653 1.68671 1.68687 1.687 1.68711 1.68719 1.68725 1.68728 1.6873 1.68727 1.68724 1.68716 1.68707 1.68695 1.68681 1.68664 1.68646 1.68624 1.68601 1.68575 1.68548 1.68517 1.68486 1.68452 1.68418 1.6838 1.68343 1.68302 1.68262 1.68219 1.68177 1.68132 1.68088 1.68042 1.67996 1.67949 1.67903 1.67856 1.67809 1.67762 1.67716 1.67669 1.67623 1.67576 1.67531 1.67485 1.67439 1.67391 1.67342 1.67287 1.67225 1.67148 1.67049 1.66907 1.66699 1.66376 1.65868 1.65054 1.63757 1.61706 1.58536 1.53811 1.47123 1.38276 1.27483 1.15425 1.03088 0.914374 0.811548 0.725474 0.65619 0.601921 0.560191 0.528478 0.504561 0.486601 0.473153 0.463092 0.455573 0.449949 0.445743 0.442593 0.440234 0.438464 0.437138 0.436142 0.435398 0.434842 0.434431 0.434128 0.433911 0.433758 0.433658 0.433597 0.43357 0.433568 0.43359 0.433628 0.433684 0.433752 0.433832 0.433921 0.434018 0.434119 0.43422 0.434316 0.4344 0.434464 0.434499 0.433752 0.433724 0.433672 0.433602 0.43352 0.433432 0.433342 0.433256 0.433175 0.433105 0.433046 0.433003 0.432978 0.432976 0.433 0.433059 0.433158 0.433311 0.43353 0.433837 0.434252 0.434815 0.435565 0.436568 0.4379 0.439674 0.442032 0.445176 0.449363 0.454955 0.462419 0.472394 0.485714 0.503488 0.527143 0.558495 0.599743 0.653393 0.721923 0.807155 0.909156 1.02503 1.14814 1.26897 1.37763 1.46712 1.53505 1.58323 1.61565 1.63668 1.65001 1.65837 1.6636 1.66692 1.66906 1.67051 1.67152 1.6723 1.67292 1.67346 1.67395 1.67443 1.67488 1.67533 1.67578 1.67624 1.67668 1.67714 1.6776 1.67806 1.67851 1.67897 1.67942 1.67988 1.68032 1.68077 1.6812 1.68163 1.68205 1.68246 1.68285 1.68324 1.6836 1.68396 1.6843 1.68462 1.68492 1.68521 1.68547 1.68572 1.68594 1.68614 1.68631 1.68647 1.6866 1.68671 1.68679 1.68685 1.68688 1.68689 1.68687 1.68683 1.68676 1.68667 1.68655 1.68642 1.68625 1.68607 1.68585 1.68563 1.68537 1.6851 1.6848 1.6845 1.68417 1.68383 1.68346 1.68309 1.68269 1.6823 1.68188 1.68146 1.68103 1.68059 1.68014 1.6797 1.67924 1.67878 1.67832 1.67787 1.6774 1.67695 1.67649 1.67604 1.67559 1.67514 1.67469 1.67424 1.67377 1.67328 1.67274 1.67212 1.67134 1.67032 1.66886 1.66669 1.66333 1.65802 1.64953 1.63601 1.61469 1.58185 1.53312 1.46454 1.37444 1.26533 1.14434 1.02139 0.905932 0.80448 0.719822 0.651818 0.598617 0.557735 0.526671 0.503243 0.485644 0.472461 0.462593 0.455213 0.449688 0.445553 0.442453 0.440129 0.438382 0.437072 0.436086 0.435349 0.434796 0.434387 0.434084 0.433867 0.433713 0.433611 0.433548 0.433518 0.433513 0.43353 0.433564 0.433614 0.433675 0.433748 0.433827 0.433912 0.433999 0.434086 0.434165 0.434234 0.434284 0.434311 0.433563 0.433541 0.4335 0.433444 0.433376 0.433302 0.433226 0.433152 0.433082 0.433021 0.43297 0.432933 0.432913 0.432916 0.432944 0.433006 0.433108 0.433263 0.433483 0.433789 0.434202 0.43476 0.435502 0.436491 0.437803 0.439547 0.441862 0.444944 0.449044 0.454513 0.461807 0.471547 0.484544 0.501878 0.524939 0.555501 0.595719 0.648068 0.715035 0.798529 0.89883 1.01338 1.13593 1.25721 1.36727 1.45874 1.52877 1.5788 1.61265 1.63471 1.64873 1.65753 1.66305 1.66654 1.66879 1.67029 1.67134 1.67214 1.67276 1.67331 1.67379 1.67426 1.6747 1.67514 1.67558 1.67602 1.67646 1.67691 1.67735 1.6778 1.67824 1.67869 1.67913 1.67958 1.68001 1.68045 1.68087 1.68129 1.68169 1.6821 1.68248 1.68286 1.68322 1.68357 1.68389 1.68421 1.68451 1.68479 1.68504 1.68529 1.6855 1.6857 1.68587 1.68603 1.68615 1.68626 1.68633 1.6864 1.68642 1.68643 1.68641 1.68638 1.6863 1.68622 1.6861 1.68597 1.6858 1.68563 1.68542 1.68519 1.68494 1.68468 1.68439 1.68409 1.68376 1.68343 1.68307 1.68271 1.68232 1.68194 1.68153 1.68112 1.68069 1.68027 1.67983 1.67939 1.67894 1.6785 1.67805 1.67761 1.67715 1.67671 1.67627 1.67583 1.67539 1.67495 1.67451 1.67407 1.67361 1.67312 1.67258 1.67195 1.67116 1.6701 1.66858 1.66631 1.66277 1.65717 1.64824 1.63402 1.61166 1.57737 1.52679 1.45612 1.36405 1.25357 1.13216 1.00979 0.895674 0.795924 0.712996 0.646546 0.594634 0.554772 0.524491 0.501649 0.484486 0.471622 0.461986 0.454774 0.44937 0.445321 0.442281 0.44 0.438282 0.436992 0.43602 0.435291 0.434743 0.434336 0.434035 0.433817 0.433661 0.433558 0.433492 0.433459 0.43345 0.433464 0.433493 0.433537 0.433591 0.433655 0.433724 0.433798 0.433872 0.433945 0.43401 0.434066 0.434105 0.434127 0.433379 0.433362 0.43333 0.433286 0.43323 0.43317 0.433106 0.433043 0.432983 0.432931 0.432887 0.432858 0.432844 0.432851 0.432883 0.432949 0.433053 0.43321 0.43343 0.433735 0.434145 0.434696 0.435427 0.436401 0.437688 0.439396 0.44166 0.444669 0.448667 0.453993 0.461089 0.470555 0.483177 0.500002 0.522374 0.55202 0.591043 0.641877 0.707014 0.788455 0.886714 0.99962 1.12139 1.24308 1.35469 1.44847 1.52101 1.57328 1.60891 1.63223 1.64712 1.65649 1.66236 1.66607 1.66845 1.67004 1.67113 1.67194 1.67258 1.67312 1.6736 1.67406 1.67449 1.67493 1.67535 1.67578 1.67621 1.67664 1.67707 1.67751 1.67794 1.67838 1.67881 1.67924 1.67966 1.68009 1.6805 1.68091 1.6813 1.6817 1.68207 1.68244 1.68279 1.68313 1.68345 1.68376 1.68405 1.68432 1.68457 1.68481 1.68502 1.68522 1.68538 1.68553 1.68565 1.68576 1.68583 1.68589 1.68592 1.68593 1.68591 1.68587 1.6858 1.68572 1.68561 1.68548 1.68531 1.68514 1.68493 1.68472 1.68447 1.68422 1.68393 1.68364 1.68332 1.68299 1.68264 1.68229 1.68191 1.68153 1.68114 1.68074 1.68032 1.67991 1.67948 1.67905 1.67862 1.67819 1.67775 1.67732 1.67688 1.67645 1.67601 1.67559 1.67516 1.67474 1.67431 1.67388 1.67342 1.67294 1.6724 1.67176 1.67095 1.66984 1.66824 1.66583 1.66207 1.65612 1.64661 1.63152 1.60787 1.5718 1.51896 1.44579 1.35143 1.23942 1.11765 0.996099 0.883638 0.78593 0.705048 0.640414 0.590005 0.551327 0.521953 0.499792 0.483133 0.47064 0.461274 0.454257 0.448994 0.445046 0.442078 0.439847 0.438165 0.436899 0.435942 0.435224 0.434682 0.43428 0.433979 0.433762 0.433605 0.4335 0.433431 0.433396 0.433383 0.433392 0.433415 0.433453 0.4335 0.433556 0.433616 0.433679 0.433742 0.433802 0.433855 0.4339 0.433931 0.433947 0.433202 0.43319 0.433165 0.43313 0.433086 0.433036 0.432983 0.432931 0.432881 0.432837 0.432801 0.432778 0.43277 0.432782 0.432818 0.432887 0.432994 0.433152 0.433371 0.433674 0.43408 0.434623 0.435342 0.436296 0.437554 0.439222 0.441426 0.444352 0.448234 0.453398 0.46027 0.469428 0.481628 0.497878 0.519476 0.54809 0.585763 0.634882 0.697935 0.777014 0.872881 0.983796 1.10451 1.22647 1.33974 1.43613 1.51158 1.56653 1.60429 1.62917 1.64512 1.65519 1.6615 1.66549 1.66804 1.66973 1.67088 1.67172 1.67237 1.67292 1.67339 1.67384 1.67427 1.67469 1.6751 1.67552 1.67593 1.67635 1.67677 1.67719 1.67761 1.67803 1.67845 1.67887 1.67928 1.67969 1.68009 1.68049 1.68088 1.68126 1.68162 1.68198 1.68232 1.68266 1.68297 1.68327 1.68355 1.68382 1.68406 1.68429 1.6845 1.68469 1.68485 1.685 1.68511 1.68522 1.68529 1.68535 1.68537 1.68539 1.68536 1.68533 1.68526 1.68518 1.68507 1.68494 1.68478 1.68461 1.68441 1.6842 1.68396 1.68371 1.68343 1.68315 1.68284 1.68252 1.68218 1.68183 1.68147 1.6811 1.68071 1.68032 1.67992 1.67951 1.6791 1.67869 1.67826 1.67785 1.67742 1.677 1.67658 1.67616 1.67574 1.67533 1.67491 1.6745 1.67408 1.67366 1.67321 1.67274 1.67219 1.67154 1.67069 1.66953 1.66783 1.66525 1.66121 1.6548 1.64459 1.62842 1.6032 1.56498 1.50946 1.43338 1.33643 1.22282 1.10081 0.980349 0.869895 0.774579 0.696049 0.633487 0.584778 0.547437 0.519084 0.49769 0.481599 0.469523 0.460462 0.453667 0.448564 0.444731 0.441844 0.439671 0.43803 0.436792 0.435854 0.435149 0.434615 0.434217 0.433919 0.433702 0.433545 0.433438 0.433367 0.433328 0.433312 0.433316 0.433334 0.433366 0.433406 0.433453 0.433504 0.433558 0.43361 0.433659 0.433703 0.433738 0.433762 0.433774 0.433034 0.433025 0.433007 0.43298 0.432945 0.432905 0.432861 0.432819 0.432777 0.432741 0.432713 0.432696 0.432693 0.43271 0.43275 0.432822 0.43293 0.433089 0.433308 0.433608 0.434008 0.434541 0.435245 0.436177 0.437403 0.439024 0.441163 0.443996 0.447749 0.452734 0.459358 0.468176 0.479911 0.495529 0.516276 0.543755 0.579941 0.627163 0.687895 0.764314 0.857437 0.965983 1.0853 1.20735 1.32228 1.42152 1.50029 1.55835 1.59865 1.62542 1.64266 1.65359 1.66046 1.66479 1.66755 1.66936 1.67058 1.67147 1.67213 1.67269 1.67316 1.6736 1.67402 1.67443 1.67483 1.67523 1.67563 1.67604 1.67644 1.67685 1.67725 1.67766 1.67806 1.67847 1.67887 1.67927 1.67965 1.68004 1.68041 1.68079 1.68114 1.68149 1.68182 1.68214 1.68245 1.68274 1.68301 1.68327 1.68351 1.68374 1.68393 1.68412 1.68428 1.68442 1.68453 1.68464 1.68471 1.68476 1.68479 1.6848 1.68478 1.68474 1.68468 1.6846 1.68449 1.68436 1.68421 1.68405 1.68385 1.68364 1.68341 1.68317 1.6829 1.68262 1.68232 1.68201 1.68168 1.68134 1.68098 1.68063 1.68025 1.67987 1.67948 1.67909 1.67869 1.67829 1.67788 1.67747 1.67706 1.67666 1.67625 1.67585 1.67544 1.67504 1.67464 1.67424 1.67383 1.67342 1.67298 1.67251 1.67196 1.67129 1.6704 1.66916 1.66733 1.66454 1.66015 1.65318 1.6421 1.62461 1.5975 1.55672 1.49807 1.41868 1.31892 1.20369 1.08165 0.962622 0.854553 0.76198 0.686098 0.62584 0.579013 0.543145 0.515916 0.495365 0.479899 0.468283 0.459559 0.453008 0.448082 0.444376 0.441581 0.439473 0.437877 0.436671 0.435756 0.435065 0.434541 0.434148 0.433854 0.433638 0.433481 0.433372 0.433299 0.433257 0.433237 0.433237 0.43325 0.433276 0.433309 0.433349 0.433392 0.433437 0.433479 0.43352 0.433554 0.433581 0.433599 0.433608 0.432875 0.432869 0.432855 0.432835 0.432807 0.432776 0.432741 0.432707 0.432673 0.432645 0.432623 0.432612 0.432614 0.432636 0.432679 0.432754 0.432864 0.433022 0.43324 0.433536 0.433929 0.434451 0.435138 0.436045 0.437235 0.438805 0.440871 0.443603 0.447216 0.452006 0.458363 0.466814 0.478047 0.492985 0.512814 0.539069 0.573648 0.618814 0.677012 0.750493 0.840523 0.946301 1.06383 1.18567 1.30218 1.40444 1.48689 1.54853 1.59182 1.62083 1.63965 1.65163 1.65917 1.66393 1.66695 1.66892 1.67024 1.67117 1.67187 1.67243 1.67291 1.67334 1.67375 1.67415 1.67453 1.67492 1.67531 1.6757 1.67608 1.67648 1.67687 1.67726 1.67765 1.67805 1.67843 1.67881 1.67919 1.67956 1.67992 1.68028 1.68062 1.68096 1.68128 1.6816 1.68189 1.68218 1.68244 1.68269 1.68292 1.68314 1.68333 1.68351 1.68367 1.68381 1.68392 1.68402 1.68408 1.68414 1.68416 1.68417 1.68415 1.68412 1.68405 1.68398 1.68387 1.68375 1.6836 1.68344 1.68325 1.68305 1.68282 1.68259 1.68232 1.68205 1.68176 1.68146 1.68114 1.68081 1.68047 1.68012 1.67976 1.67939 1.67901 1.67864 1.67825 1.67786 1.67747 1.67708 1.67668 1.67629 1.67589 1.67551 1.67512 1.67473 1.67434 1.67396 1.67356 1.67316 1.67273 1.67225 1.67169 1.67099 1.67005 1.66872 1.66673 1.66367 1.65884 1.6512 1.63905 1.61998 1.59059 1.54681 1.48458 1.40151 1.29877 1.18201 1.06024 0.943036 0.837751 0.748267 0.675309 0.617568 0.572781 0.538505 0.512489 0.492846 0.478054 0.466933 0.458572 0.452286 0.447552 0.443985 0.44129 0.439254 0.437708 0.436538 0.435647 0.434973 0.43446 0.434075 0.433784 0.43357 0.433413 0.433304 0.433229 0.433184 0.433161 0.433157 0.433165 0.433185 0.433212 0.433245 0.43328 0.433317 0.433352 0.433384 0.43341 0.433431 0.433445 0.433451 0.432724 0.43272 0.432711 0.432696 0.432676 0.432652 0.432624 0.432597 0.432571 0.432549 0.432533 0.432528 0.432535 0.43256 0.432607 0.432683 0.432794 0.432952 0.433167 0.433458 0.433843 0.434353 0.435021 0.4359 0.437051 0.438565 0.440554 0.443177 0.446639 0.451223 0.457295 0.465356 0.476058 0.490275 0.509132 0.534091 0.566965 0.609938 0.665417 0.735708 0.822312 0.924908 1.0402 1.16144 1.27934 1.38469 1.47115 1.53684 1.5836 1.61527 1.63598 1.64922 1.65759 1.66288 1.66623 1.6684 1.66984 1.67084 1.67157 1.67215 1.67263 1.67306 1.67346 1.67385 1.67422 1.67459 1.67496 1.67534 1.67571 1.67609 1.67646 1.67684 1.67721 1.67759 1.67796 1.67833 1.67869 1.67906 1.6794 1.67975 1.68008 1.68041 1.68071 1.68102 1.6813 1.68158 1.68183 1.68208 1.6823 1.68251 1.6827 1.68287 1.68302 1.68316 1.68326 1.68336 1.68342 1.68348 1.6835 1.68351 1.68349 1.68346 1.6834 1.68332 1.68322 1.6831 1.68295 1.6828 1.68261 1.68242 1.6822 1.68197 1.68172 1.68146 1.68117 1.68088 1.68057 1.68026 1.67992 1.67959 1.67924 1.67889 1.67852 1.67816 1.67778 1.67741 1.67703 1.67666 1.67627 1.6759 1.67552 1.67515 1.67477 1.67441 1.67403 1.67366 1.67328 1.67288 1.67245 1.67197 1.67139 1.67066 1.66965 1.6682 1.666 1.66261 1.65725 1.64876 1.63533 1.61435 1.58228 1.53501 1.46872 1.38167 1.27589 1.1578 1.03668 0.921752 0.81966 0.733598 0.663814 0.608774 0.566161 0.533575 0.508843 0.490162 0.476084 0.465489 0.457514 0.451509 0.44698 0.443562 0.440974 0.439014 0.437524 0.436393 0.435529 0.434874 0.434373 0.433996 0.43371 0.433499 0.433343 0.433233 0.433157 0.43311 0.433083 0.433075 0.433079 0.433094 0.433115 0.433142 0.43317 0.4332 0.433228 0.433253 0.433273 0.433288 0.433298 0.433302 0.432583 0.432581 0.432575 0.432565 0.43255 0.432532 0.432511 0.432491 0.43247 0.432455 0.432444 0.432444 0.432454 0.432483 0.432532 0.43261 0.432722 0.432879 0.433091 0.433376 0.433752 0.434248 0.434895 0.435744 0.436853 0.438307 0.440213 0.442722 0.446026 0.450392 0.456166 0.463819 0.473967 0.487432 0.505277 0.528882 0.559975 0.600648 0.653254 0.720135 0.803002 0.902003 1.01457 1.13473 1.2537 1.36209 1.45281 1.523 1.57373 1.60853 1.6315 1.64628 1.65567 1.6616 1.66535 1.66777 1.66936 1.67046 1.67124 1.67184 1.67233 1.67276 1.67315 1.67353 1.67388 1.67425 1.6746 1.67496 1.67531 1.67568 1.67603 1.6764 1.67675 1.67712 1.67747 1.67783 1.67817 1.67852 1.67885 1.67919 1.6795 1.67982 1.68012 1.68041 1.68068 1.68095 1.68119 1.68143 1.68164 1.68185 1.68203 1.6822 1.68234 1.68247 1.68258 1.68267 1.68273 1.68278 1.6828 1.68281 1.68279 1.68276 1.6827 1.68263 1.68253 1.68242 1.68228 1.68213 1.68195 1.68176 1.68155 1.68133 1.68108 1.68083 1.68055 1.68027 1.67997 1.67967 1.67935 1.67903 1.67869 1.67835 1.678 1.67765 1.67729 1.67694 1.67657 1.67621 1.67585 1.67549 1.67513 1.67477 1.67441 1.67406 1.6737 1.67334 1.67297 1.67258 1.67215 1.67166 1.67106 1.67027 1.66917 1.66757 1.66512 1.66131 1.6553 1.64578 1.63079 1.60753 1.57231 1.52104 1.45026 1.35897 1.2502 1.13112 1.01113 0.898967 0.80048 0.718146 0.651756 0.599568 0.559237 0.528417 0.505025 0.487347 0.474013 0.463968 0.456395 0.450686 0.446372 0.44311 0.440635 0.438757 0.437326 0.436236 0.435402 0.434767 0.434281 0.433913 0.433633 0.433425 0.433271 0.433161 0.433083 0.433034 0.433005 0.432993 0.432993 0.433004 0.43302 0.433041 0.433063 0.433087 0.433108 0.433127 0.433142 0.433153 0.433159 0.433161 0.43245 0.432449 0.432447 0.432441 0.432431 0.432418 0.432403 0.432388 0.432373 0.432362 0.432356 0.43236 0.432375 0.432406 0.432458 0.432537 0.432648 0.432803 0.433011 0.43329 0.433655 0.434135 0.43476 0.435578 0.436641 0.438033 0.439853 0.442242 0.445382 0.449522 0.454988 0.462222 0.471799 0.484491 0.501294 0.523509 0.552765 0.591059 0.640674 0.703962 0.782813 0.877817 0.987132 1.10566 1.22523 1.33647 1.43161 1.5067 1.56195 1.60039 1.62604 1.64268 1.6533 1.66003 1.66429 1.66703 1.66881 1.67002 1.67086 1.6715 1.67201 1.67244 1.67282 1.67319 1.67353 1.67388 1.67422 1.67456 1.6749 1.67525 1.67559 1.67593 1.67627 1.67662 1.67696 1.6773 1.67763 1.67796 1.67828 1.6786 1.67891 1.67921 1.67949 1.67977 1.68004 1.68029 1.68053 1.68076 1.68096 1.68116 1.68133 1.68149 1.68163 1.68176 1.68186 1.68195 1.68201 1.68206 1.68208 1.68209 1.68207 1.68204 1.68198 1.68191 1.68181 1.6817 1.68157 1.68142 1.68125 1.68107 1.68086 1.68065 1.68041 1.68017 1.67991 1.67964 1.67935 1.67906 1.67875 1.67844 1.67812 1.6778 1.67746 1.67712 1.67678 1.67644 1.67609 1.67575 1.6754 1.67506 1.67471 1.67437 1.67403 1.67369 1.67335 1.67301 1.67264 1.67226 1.67183 1.67132 1.67068 1.66983 1.66861 1.66681 1.66404 1.65972 1.6529 1.64213 1.62526 1.59929 1.5604 1.5046 1.42892 1.33326 1.2217 1.10208 0.983795 0.874913 0.780429 0.7021 0.639283 0.590065 0.552093 0.523094 0.50108 0.484434 0.471866 0.462386 0.455229 0.449824 0.445733 0.442634 0.440277 0.438485 0.437115 0.43607 0.435267 0.434654 0.434184 0.433826 0.433553 0.433349 0.433196 0.433087 0.433009 0.432959 0.432927 0.432912 0.432908 0.432915 0.432926 0.432942 0.43296 0.432978 0.432994 0.433008 0.433018 0.433025 0.433028 0.433028 0.432325 0.432327 0.432326 0.432324 0.432318 0.43231 0.432299 0.432289 0.432279 0.432273 0.432271 0.432278 0.432296 0.43233 0.432383 0.432462 0.432572 0.432725 0.432929 0.4332 0.433554 0.434017 0.434618 0.435402 0.436419 0.437746 0.439476 0.441743 0.444714 0.448624 0.453776 0.460582 0.469579 0.481485 0.497232 0.518033 0.545421 0.581288 0.62783 0.687384 0.761983 0.852615 0.958149 1.0744 1.19399 1.30774 1.40729 1.48763 1.54793 1.59057 1.61939 1.63827 1.6504 1.65811 1.663 1.66613 1.66815 1.66951 1.67044 1.67113 1.67165 1.67209 1.67248 1.67283 1.67317 1.6735 1.67382 1.67415 1.67447 1.6748 1.67512 1.67545 1.67578 1.67611 1.67643 1.67675 1.67707 1.67738 1.67769 1.67799 1.67828 1.67857 1.67885 1.67912 1.67937 1.67961 1.67984 1.68006 1.68025 1.68044 1.68061 1.68076 1.68089 1.68102 1.68111 1.6812 1.68125 1.6813 1.68132 1.68133 1.68131 1.68128 1.68123 1.68116 1.68107 1.68096 1.68083 1.68069 1.68052 1.68035 1.68015 1.67995 1.67972 1.67949 1.67924 1.67898 1.6787 1.67843 1.67813 1.67784 1.67753 1.67722 1.6769 1.67658 1.67625 1.67593 1.67559 1.67527 1.67494 1.67461 1.67428 1.67396 1.67364 1.67331 1.67298 1.67265 1.6723 1.67192 1.67147 1.67095 1.67026 1.66932 1.66795 1.6659 1.66273 1.65777 1.64995 1.63766 1.61853 1.58936 1.54624 1.48538 1.40445 1.30443 1.19044 1.07089 0.954928 0.849853 0.759743 0.685651 0.626547 0.580381 0.544817 0.517669 0.497056 0.481457 0.469667 0.460761 0.454028 0.448934 0.445071 0.442138 0.439904 0.438199 0.436894 0.435894 0.435125 0.434536 0.434082 0.433735 0.43347 0.433271 0.433121 0.433013 0.432935 0.432883 0.432849 0.432832 0.432825 0.432828 0.432835 0.432847 0.43286 0.432874 0.432885 0.432895 0.432901 0.432904 0.432905 0.432904 0.43221 0.432212 0.432214 0.432214 0.432212 0.432208 0.432201 0.432195 0.432189 0.432186 0.432188 0.432198 0.432218 0.432254 0.432308 0.432387 0.432496 0.432646 0.432844 0.433106 0.433448 0.433894 0.43447 0.435218 0.436187 0.437448 0.439087 0.441228 0.444029 0.447706 0.452541 0.458917 0.46733 0.478448 0.493134 0.512518 0.538028 0.571447 0.61487 0.670596 0.740756 0.826683 0.927918 1.04122 1.1601 1.27582 1.37962 1.46545 1.53131 1.57875 1.6113 1.63286 1.64682 1.65574 1.66141 1.66503 1.66737 1.66891 1.66996 1.67071 1.67127 1.67173 1.67211 1.67246 1.67279 1.6731 1.67341 1.67372 1.67403 1.67434 1.67464 1.67496 1.67526 1.67557 1.67588 1.67619 1.67648 1.67679 1.67707 1.67737 1.67764 1.67792 1.67818 1.67843 1.67867 1.67891 1.67912 1.67933 1.67952 1.6797 1.67986 1.68001 1.68013 1.68025 1.68034 1.68042 1.68048 1.68052 1.68054 1.68055 1.68053 1.6805 1.68045 1.68039 1.68029 1.68019 1.68007 1.67994 1.67978 1.67961 1.67942 1.67923 1.67901 1.67879 1.67855 1.6783 1.67804 1.67777 1.67749 1.67721 1.67691 1.67662 1.67631 1.67601 1.6757 1.67539 1.67508 1.67477 1.67446 1.67415 1.67384 1.67354 1.67323 1.67292 1.6726 1.67228 1.67193 1.67155 1.67109 1.67053 1.66977 1.66872 1.66716 1.6648 1.66112 1.65537 1.64633 1.63218 1.61034 1.5774 1.52946 1.46303 1.37664 1.27243 1.15655 1.03778 0.924826 0.824073 0.738666 0.668995 0.613696 0.570626 0.537491 0.512204 0.492997 0.478449 0.467439 0.459112 0.452805 0.448025 0.444392 0.441628 0.439517 0.437903 0.436663 0.435712 0.434977 0.434412 0.433976 0.433642 0.433385 0.433191 0.433045 0.432938 0.43286 0.432808 0.432773 0.432753 0.432744 0.432744 0.432748 0.432756 0.432765 0.432774 0.432782 0.432788 0.432791 0.432791 0.43279 0.432788 0.432103 0.432106 0.432109 0.432112 0.432113 0.432111 0.432108 0.432105 0.432103 0.432103 0.432108 0.43212 0.432142 0.43218 0.432234 0.432312 0.432419 0.432565 0.432757 0.433011 0.433339 0.433766 0.434316 0.435029 0.435949 0.437141 0.438688 0.440704 0.443333 0.446777 0.451296 0.457243 0.465076 0.475411 0.489044 0.50702 0.530664 0.561642 0.60194 0.653789 0.719378 0.800322 0.896771 1.00641 1.12378 1.24076 1.34844 1.43984 1.5117 1.56457 1.60145 1.62622 1.6424 1.65281 1.65945 1.6637 1.66642 1.66821 1.6694 1.67024 1.67085 1.67133 1.67172 1.67207 1.67239 1.6727 1.67299 1.67328 1.67357 1.67386 1.67415 1.67444 1.67473 1.67503 1.67531 1.6756 1.67589 1.67617 1.67645 1.67672 1.67698 1.67724 1.67749 1.67773 1.67796 1.67818 1.67839 1.67859 1.67877 1.67894 1.67909 1.67923 1.67935 1.67946 1.67955 1.67963 1.67968 1.67972 1.67974 1.67975 1.67973 1.6797 1.67965 1.67959 1.6795 1.67941 1.67929 1.67916 1.67901 1.67885 1.67867 1.67848 1.67828 1.67806 1.67783 1.6776 1.67735 1.6771 1.67683 1.67656 1.67628 1.67601 1.67572 1.67543 1.67514 1.67485 1.67455 1.67426 1.67397 1.67368 1.67338 1.6731 1.6728 1.67251 1.67221 1.67189 1.67154 1.67115 1.67067 1.67006 1.66922 1.66801 1.6662 1.66344 1.65914 1.6524 1.64185 1.62545 1.60037 1.56306 1.50967 1.43724 1.34532 1.2373 1.12025 1.00307 0.893824 0.797872 0.71744 0.652321 0.600874 0.560907 0.530193 0.506757 0.488944 0.47544 0.465206 0.457454 0.451572 0.447105 0.443703 0.441109 0.439122 0.437599 0.436426 0.435523 0.434824 0.434285 0.433867 0.433546 0.433298 0.43311 0.432968 0.432863 0.432786 0.432734 0.432698 0.432677 0.432665 0.432662 0.432663 0.432668 0.432674 0.43268 0.432685 0.432687 0.432687 0.432686 0.432683 0.43268 0.432004 0.432008 0.432013 0.432017 0.43202 0.432021 0.432021 0.432021 0.432021 0.432024 0.432031 0.