# vtk DataFile Version 3.0
Immiscible displacement
ASCII
DATASET RECTILINEAR_GRID
DIMENSIONS 200 200 1
X_COORDINATES 200 double
1 2 3 4 5 6 7 8 9 10 11 12 13 14 15 16 17 18 19 20 21 22 23 24 25 26 27 28 29 30 31 32 33 34 35 36 37 38 39 40 41 42 43 44 45 46 47 48 49 50 51 52 53 54 55 56 57 58 59 60 61 62 63 64 65 66 67 68 69 70 71 72 73 74 75 76 77 78 79 80 81 82 83 84 85 86 87 88 89 90 91 92 93 94 95 96 97 98 99 100 101 102 103 104 105 106 107 108 109 110 111 112 113 114 115 116 117 118 119 120 121 122 123 124 125 126 127 128 129 130 131 132 133 134 135 136 137 138 139 140 141 142 143 144 145 146 147 148 149 150 151 152 153 154 155 156 157 158 159 160 161 162 163 164 165 166 167 168 169 170 171 172 173 174 175 176 177 178 179 180 181 182 183 184 185 186 187 188 189 190 191 192 193 194 195 196 197 198 199 200 
Y_COORDINATES 200 double
1 2 3 4 5 6 7 8 9 10 11 12 13 14 15 16 17 18 19 20 21 22 23 24 25 26 27 28 29 30 31 32 33 34 35 36 37 38 39 40 41 42 43 44 45 46 47 48 49 50 51 52 53 54 55 56 57 58 59 60 61 62 63 64 65 66 67 68 69 70 71 72 73 74 75 76 77 78 79 80 81 82 83 84 85 86 87 88 89 90 91 92 93 94 95 96 97 98 99 100 101 102 103 104 105 106 107 108 109 110 111 112 113 114 115 116 117 118 119 120 121 122 123 124 125 126 127 128 129 130 131 132 133 134 135 136 137 138 139 140 141 142 143 144 145 146 147 148 149 150 151 152 153 154 155 156 157 158 159 160 161 162 163 164 165 166 167 168 169 170 171 172 173 174 175 176 177 178 179 180 181 182 183 184 185 186 187 188 189 190 191 192 193 194 195 196 197 198 199 200 
Z_COORDINATES 1 double
0
POINT_DATA 40000
SCALARS rho double 1
LOOKUP_TABLE default
0.427944 0.42798 0.428031 0.428091 0.428157 0.428231 0.428311 0.428402 0.428503 0.428617 0.428745 0.42889 0.429055 0.429243 0.429459 0.429708 0.429998 0.430343 0.430754 0.431255 0.431871 0.432641 0.433613 0.434857 0.43646 0.438545 0.441272 0.444859 0.449591 0.455857 0.464163 0.47519 0.489825 0.509233 0.534901 0.56869 0.612812 0.669701 0.741625 0.829967 0.934126 1.0504 1.17157 1.28812 1.39093 1.47415 1.53647 1.58017 1.60927 1.62791 1.63948 1.64646 1.65053 1.65279 1.65392 1.65437 1.65439 1.65415 1.65375 1.65326 1.65269 1.6521 1.65148 1.65085 1.65021 1.64958 1.64893 1.6483 1.64767 1.64705 1.64643 1.64582 1.64522 1.64463 1.64406 1.64349 1.64294 1.64241 1.64189 1.64139 1.6409 1.64044 1.63999 1.63957 1.63916 1.63878 1.63842 1.63809 1.63777 1.63749 1.63723 1.637 1.63679 1.63661 1.63646 1.63633 1.63624 1.63617 1.63613 1.63612 1.63614 1.63619 1.63626 1.63636 1.63649 1.63666 1.63684 1.63706 1.63729 1.63756 1.63785 1.63817 1.63851 1.63888 1.63926 1.63967 1.6401 1.64055 1.64102 1.64151 1.64201 1.64254 1.64307 1.64362 1.64419 1.64477 1.64535 1.64595 1.64656 1.64718 1.6478 1.64843 1.64907 1.64971 1.65034 1.65098 1.65161 1.65222 1.65282 1.65338 1.65387 1.65427 1.6545 1.65447 1.65401 1.65286 1.65057 1.64646 1.63942 1.62776 1.60898 1.57966 1.53568 1.47303 1.38945 1.28636 1.16965 1.04848 0.932365 0.828458 0.740403 0.668758 0.612116 0.5682 0.534578 0.509041 0.489735 0.475178 0.464212 0.455952 0.449721 0.445014 0.441445 0.438731 0.436654 0.435055 0.433813 0.432839 0.432065 0.431443 0.430935 0.430514 0.43016 0.429858 0.429596 0.429368 0.429167 0.428989 0.428831 0.428691 0.428566 0.428456 0.428358 0.428272 0.428196 0.428129 0.428069 0.428017 0.427973 0.427943 0.42799 0.428018 0.428063 0.428119 0.428183 0.428254 0.428334 0.428423 0.428523 0.428636 0.428763 0.428908 0.429071 0.429258 0.429472 0.42972 0.430008 0.43035 0.430759 0.431257 0.431869 0.432635 0.433602 0.43484 0.436434 0.43851 0.441223 0.444792 0.449501 0.455735 0.463998 0.474968 0.489525 0.50883 0.53436 0.567968 0.611857 0.668459 0.740044 0.828026 0.931851 1.0479 1.16902 1.28574 1.38889 1.47256 1.5353 1.57937 1.60875 1.62758 1.63927 1.64633 1.65045 1.65275 1.6539 1.65437 1.65439 1.65417 1.65377 1.65328 1.65271 1.65213 1.65151 1.65088 1.65024 1.64961 1.64897 1.64834 1.64771 1.64709 1.64647 1.64587 1.64527 1.64469 1.64411 1.64355 1.643 1.64247 1.64195 1.64145 1.64096 1.6405 1.64006 1.63964 1.63923 1.63885 1.63849 1.63816 1.63785 1.63757 1.6373 1.63707 1.63686 1.63669 1.63653 1.63641 1.63631 1.63625 1.63621 1.6362 1.63621 1.63627 1.63634 1.63644 1.63657 1.63673 1.63691 1.63713 1.63737 1.63764 1.63792 1.63824 1.63858 1.63895 1.63933 1.63974 1.64016 1.64062 1.64108 1.64157 1.64207 1.64259 1.64312 1.64368 1.64424 1.64482 1.6454 1.646 1.6466 1.64722 1.64784 1.64847 1.6491 1.64974 1.65037 1.65101 1.65163 1.65225 1.65284 1.65339 1.65388 1.65428 1.6545 1.65447 1.65399 1.65282 1.6505 1.64634 1.63921 1.62742 1.60845 1.57886 1.53451 1.47143 1.38741 1.28398 1.16711 1.04599 0.930103 0.82653 0.738834 0.667526 0.611169 0.567484 0.53404 0.508641 0.489436 0.474957 0.464047 0.45583 0.44963 0.444947 0.441396 0.438695 0.436628 0.435037 0.4338 0.432832 0.432062 0.431444 0.430938 0.43052 0.430167 0.429868 0.429608 0.429381 0.429181 0.429005 0.428848 0.428709 0.428584 0.428475 0.428378 0.428293 0.428217 0.428152 0.428094 0.428045 0.428006 0.427982 0.42806 0.428081 0.428119 0.428169 0.428228 0.428296 0.428373 0.42846 0.428558 0.428669 0.428795 0.428937 0.429098 0.429283 0.429493 0.429738 0.430023 0.430361 0.430765 0.431258 0.431863 0.432622 0.433579 0.434804 0.436384 0.438439 0.441126 0.44466 0.449323 0.455494 0.463674 0.474532 0.48894 0.508045 0.533308 0.566568 0.610009 0.666056 0.736991 0.824275 0.927454 1.04305 1.16407 1.28109 1.3849 1.4694 1.53299 1.57777 1.60769 1.6269 1.63885 1.64607 1.6503 1.65266 1.65386 1.65435 1.6544 1.65418 1.65379 1.65331 1.65275 1.65217 1.65155 1.65093 1.6503 1.64967 1.64903 1.64841 1.64778 1.64716 1.64655 1.64595 1.64535 1.64477 1.64419 1.64364 1.64309 1.64257 1.64205 1.64155 1.64107 1.64061 1.64016 1.63975 1.63934 1.63897 1.63861 1.63828 1.63797 1.63769 1.63743 1.6372 1.63699 1.63682 1.63666 1.63654 1.63644 1.63638 1.63634 1.63633 1.63634 1.63639 1.63646 1.63657 1.6367 1.63686 1.63704 1.63726 1.63749 1.63776 1.63804 1.63836 1.6387 1.63906 1.63944 1.63985 1.64027 1.64072 1.64118 1.64167 1.64217 1.64269 1.64322 1.64377 1.64432 1.6449 1.64548 1.64608 1.64668 1.64729 1.64791 1.64854 1.64916 1.6498 1.65043 1.65106 1.65168 1.65229 1.65287 1.65343 1.65391 1.65429 1.6545 1.65445 1.65395 1.65273 1.65034 1.64608 1.63878 1.62674 1.60738 1.57725 1.53219 1.46827 1.38342 1.27934 1.16217 1.04117 0.92573 0.822803 0.735802 0.665141 0.609334 0.566094 0.532996 0.50786 0.488855 0.474524 0.463725 0.455589 0.449451 0.444814 0.441297 0.438622 0.436575 0.434999 0.433775 0.432816 0.432053 0.431441 0.430941 0.430528 0.430179 0.429883 0.429626 0.429403 0.429205 0.429031 0.428876 0.428738 0.428616 0.428508 0.428412 0.428329 0.428255 0.428192 0.428138 0.428093 0.42806 0.428042 0.428144 0.42816 0.428191 0.428234 0.428287 0.428351 0.428424 0.428508 0.428603 0.428712 0.428835 0.428974 0.429132 0.429313 0.42952 0.42976 0.43004 0.430373 0.43077 0.431255 0.431852 0.432599 0.433542 0.43475 0.436307 0.438333 0.440982 0.444466 0.44906 0.455142 0.463201 0.473897 0.488088 0.506903 0.531782 0.564539 0.607334 0.66258 0.732574 0.818843 0.921073 1.036 1.15683 1.27426 1.37899 1.46471 1.52952 1.57536 1.60608 1.62587 1.6382 1.64568 1.65007 1.65253 1.6538 1.65433 1.6544 1.65421 1.65383 1.65335 1.65281 1.65223 1.65162 1.651 1.65037 1.64975 1.64911 1.64849 1.64787 1.64726 1.64664 1.64605 1.64545 1.64488 1.64431 1.64376 1.64321 1.64269 1.64217 1.64168 1.6412 1.64075 1.6403 1.63989 1.63948 1.63911 1.63875 1.63843 1.63812 1.63784 1.63758 1.63735 1.63715 1.63697 1.63682 1.6367 1.6366 1.63654 1.6365 1.63649 1.6365 1.63655 1.63662 1.63673 1.63686 1.63702 1.6372 1.63741 1.63764 1.63791 1.63819 1.63851 1.63884 1.63921 1.63958 1.63999 1.64041 1.64086 1.64131 1.6418 1.64229 1.64281 1.64333 1.64388 1.64443 1.64501 1.64558 1.64618 1.64677 1.64739 1.648 1.64862 1.64924 1.64988 1.6505 1.65113 1.65174 1.65235 1.65293 1.65347 1.65394 1.65432 1.65451 1.65443 1.65388 1.6526 1.65011 1.64568 1.63814 1.6257 1.60577 1.57483 1.52872 1.46357 1.37752 1.27251 1.15495 1.03414 0.919382 0.817402 0.731414 0.661689 0.606679 0.564079 0.531481 0.506727 0.488008 0.473892 0.463254 0.455238 0.449189 0.444618 0.441152 0.438515 0.436496 0.434943 0.433735 0.43279 0.432038 0.431435 0.430943 0.430536 0.430193 0.429901 0.429648 0.429429 0.429235 0.429063 0.428911 0.428776 0.428656 0.42855 0.428456 0.428375 0.428304 0.428245 0.428195 0.428156 0.428128 0.428114 0.428234 0.428246 0.428271 0.428308 0.428356 0.428414 0.428483 0.428563 0.428655 0.42876 0.42888 0.429016 0.42917 0.429347 0.429549 0.429784 0.430058 0.430384 0.430773 0.431249 0.431834 0.432567 0.433493 0.434678 0.436206 0.438195 0.440794 0.444213 0.448721 0.454687 0.462591 0.473079 0.486992 0.505436 0.529823 0.561934 0.603902 0.65812 0.7269 0.811853 0.91284 1.02686 1.14739 1.2653 1.3712 1.45847 1.52489 1.57211 1.60391 1.62447 1.63732 1.64514 1.64975 1.65235 1.6537 1.65429 1.6544 1.65423 1.65387 1.65341 1.65287 1.6523 1.6517 1.65109 1.65046 1.64984 1.64921 1.6486 1.64797 1.64737 1.64676 1.64617 1.64558 1.64501 1.64444 1.64389 1.64335 1.64283 1.64232 1.64183 1.64135 1.6409 1.64046 1.64005 1.63965 1.63928 1.63892 1.6386 1.63829 1.63801 1.63776 1.63753 1.63732 1.63715 1.637 1.63688 1.63678 1.63672 1.63668 1.63667 1.63669 1.63674 1.6368 1.63691 1.63703 1.6372 1.63737 1.63759 1.63782 1.63808 1.63836 1.63868 1.63901 1.63937 1.63974 1.64015 1.64056 1.64101 1.64146 1.64195 1.64243 1.64295 1.64347 1.64402 1.64456 1.64513 1.64571 1.6463 1.64689 1.6475 1.6481 1.64872 1.64934 1.64997 1.65059 1.65121 1.65182 1.65242 1.65299 1.65352 1.65398 1.65434 1.65451 1.65439 1.65379 1.65242 1.64979 1.64514 1.63725 1.6243 1.60359 1.57158 1.52407 1.45732 1.36972 1.26356 1.14553 1.02503 0.911187 0.810451 0.725775 0.657257 0.60327 0.561493 0.529535 0.505269 0.486919 0.473079 0.462646 0.454784 0.44885 0.444365 0.440963 0.438374 0.436393 0.434868 0.433682 0.432754 0.432017 0.431425 0.430941 0.430542 0.430206 0.42992 0.429672 0.429457 0.429267 0.4291 0.42895 0.428818 0.428701 0.428598 0.428507 0.428429 0.428361 0.428305 0.42826 0.428225 0.428202 0.428191 0.428326 0.428335 0.428355 0.428387 0.428429 0.428483 0.428547 0.428623 0.428711 0.428812 0.428927 0.429059 0.429209 0.429381 0.429578 0.429807 0.430075 0.430392 0.430773 0.431237 0.431809 0.432525 0.43343 0.434589 0.436083 0.438026 0.440566 0.443907 0.448311 0.454138 0.461856 0.472095 0.485675 0.503674 0.527471 0.55881 0.599784 0.652764 0.720079 0.803429 0.902879 1.01574 1.13584 1.25425 1.3615 1.45065 1.51903 1.56799 1.60114 1.62267 1.63618 1.64444 1.64933 1.65211 1.65358 1.65424 1.6544 1.65426 1.65392 1.65347 1.65294 1.65238 1.65179 1.65118 1.65056 1.64995 1.64932 1.64871 1.64809 1.64749 1.64689 1.6463 1.64572 1.64515 1.64458 1.64404 1.6435 1.64299 1.64248 1.64199 1.64152 1.64107 1.64063 1.64022 1.63983 1.63946 1.6391 1.63878 1.63848 1.6382 1.63795 1.63772 1.63752 1.63735 1.63719 1.63708 1.63698 1.63692 1.63688 1.63687 1.63688 1.63693 1.637 1.63711 1.63723 1.63739 1.63757 1.63778 1.63801 1.63827 1.63855 1.63886 1.63919 1.63955 1.63992 1.64032 1.64073 1.64118 1.64163 1.64211 1.64259 1.6431 1.64362 1.64416 1.64471 1.64527 1.64584 1.64643 1.64702 1.64762 1.64822 1.64884 1.64945 1.65007 1.65069 1.65131 1.65191 1.6525 1.65306 1.65359 1.65403 1.65437 1.6545 1.65434 1.65366 1.65218 1.64936 1.64443 1.6361 1.62249 1.60081 1.56744 1.51819 1.44949 1.36001 1.25252 1.13401 1.01395 0.90127 0.802071 0.718993 0.651935 0.599179 0.558389 0.527199 0.503519 0.485611 0.472101 0.461916 0.454238 0.448441 0.444059 0.440734 0.438204 0.436267 0.434776 0.433617 0.432709 0.431988 0.431409 0.430936 0.430546 0.430218 0.429938 0.429697 0.429486 0.429301 0.429137 0.428992 0.428863 0.428749 0.428649 0.428561 0.428486 0.428422 0.42837 0.428329 0.428299 0.428279 0.428271 0.428417 0.428424 0.42844 0.428467 0.428504 0.428553 0.428612 0.428684 0.428768 0.428865 0.428976 0.429104 0.429249 0.429416 0.429607 0.429829 0.430089 0.430398 0.430769 0.43122 0.431777 0.432474 0.433356 0.434484 0.435938 0.43783 0.440303 0.443554 0.447838 0.453506 0.461011 0.470964 0.484161 0.501649 0.524769 0.55522 0.595052 0.646604 0.712218 0.793692 0.891313 1.00275 1.12224 1.24111 1.34986 1.44118 1.51188 1.56291 1.59771 1.62042 1.63476 1.64356 1.6488 1.65181 1.65342 1.65417 1.65439 1.65428 1.65397 1.65354 1.65303 1.65248 1.65189 1.65129 1.65068 1.65007 1.64945 1.64884 1.64823 1.64763 1.64703 1.64645 1.64587 1.6453 1.64474 1.6442 1.64367 1.64316 1.64265 1.64217 1.6417 1.64125 1.64082 1.64041 1.64001 1.63965 1.6393 1.63898 1.63867 1.6384 1.63815 1.63793 1.63772 1.63755 1.6374 1.63728 1.63719 1.63713 1.63708 1.63708 1.63709 1.63714 1.63721 1.63731 1.63743 1.63759 1.63777 1.63798 1.63821 1.63847 1.63875 1.63906 1.63938 1.63974 1.64011 1.64051 1.64092 1.64136 1.6418 1.64228 1.64276 1.64327 1.64379 1.64432 1.64486 1.64543 1.64599 1.64657 1.64716 1.64776 1.64835 1.64897 1.64957 1.65019 1.6508 1.65141 1.65201 1.65259 1.65314 1.65366 1.65408 1.65439 1.65449 1.65426 1.65349 1.65187 1.64883 1.64354 1.63467 1.62023 1.59736 1.56234 1.51102 1.44 1.34837 1.23939 1.12043 1.00101 0.889754 0.792384 0.711177 0.645813 0.594477 0.554824 0.524515 0.501508 0.484106 0.470977 0.461075 0.453609 0.44797 0.443706 0.44047 0.438007 0.436121 0.434668 0.433539 0.432655 0.431952 0.431388 0.430928 0.430547 0.430227 0.429955 0.42972 0.429515 0.429334 0.429175 0.429033 0.428908 0.428798 0.428701 0.428617 0.428545 0.428485 0.428436 0.428398 0.428372 0.428356 0.428349 0.428504 0.428509 0.428522 0.428545 0.428578 0.428622 0.428678 0.428745 0.428825 0.428917 0.429024 0.429147 0.429287 0.429448 0.429634 0.429849 0.430101 0.430401 0.43076 0.431199 0.431739 0.432416 0.433271 0.434365 0.435776 0.437611 0.440008 0.443159 0.447311 0.452801 0.460068 0.469703 0.482474 0.499394 0.521761 0.551223 0.589779 0.639731 0.703429 0.782766 0.878268 0.987996 1.10666 1.22591 1.33625 1.42997 1.50333 1.5568 1.59354 1.61769 1.63301 1.64247 1.64814 1.65142 1.65321 1.65408 1.65436 1.65431 1.65403 1.65362 1.65312 1.65258 1.652 1.65141 1.6508 1.6502 1.64958 1.64898 1.64837 1.64778 1.64719 1.64661 1.64603 1.64547 1.64491 1.64438 1.64384 1.64334 1.64283 1.64236 1.64189 1.64144 1.64101 1.64061 1.64021 1.63985 1.6395 1.63919 1.63888 1.63861 1.63836 1.63814 1.63793 1.63777 1.63762 1.6375 1.6374 1.63734 1.6373 1.63729 1.63731 1.63736 1.63742 1.63753 1.63765 1.63781 1.63798 1.63819 1.63842 1.63868 1.63895 1.63926 1.63958 1.63994 1.64031 1.6407 1.64111 1.64155 1.64199 1.64247 1.64295 1.64345 1.64396 1.64449 1.64503 1.64559 1.64615 1.64673 1.64731 1.6479 1.6485 1.6491 1.64971 1.65032 1.65092 1.65153 1.65212 1.65269 1.65323 1.65373 1.65413 1.65441 1.65446 1.65416 1.65328 1.65148 1.64817 1.64245 1.63292 1.61749 1.59318 1.55621 1.50245 1.42877 1.33474 1.22419 1.10488 0.986296 0.876762 0.78151 0.702435 0.63898 0.589236 0.550852 0.521527 0.499268 0.482431 0.469724 0.460138 0.452908 0.447445 0.443313 0.440176 0.437787 0.435957 0.434547 0.433451 0.432593 0.43191 0.431362 0.430915 0.430545 0.430234 0.42997 0.429741 0.429542 0.429366 0.429212 0.429074 0.428953 0.428846 0.428753 0.428672 0.428603 0.428546 0.428501 0.428467 0.428443 0.42843 0.428424 0.428586 0.42859 0.4286 0.42862 0.428649 0.428689 0.428741 0.428804 0.428879 0.428968 0.42907 0.429189 0.429324 0.429479 0.429658 0.429867 0.43011 0.4304 0.430748 0.431172 0.431695 0.432349 0.433176 0.434235 0.435598 0.437371 0.439687 0.44273 0.446737 0.452034 0.459043 0.468332 0.48064 0.496943 0.518489 0.546874 0.584037 0.632236 0.693821 0.770776 0.863871 0.971585 1.08915 1.20863 1.32058 1.41692 1.49328 1.54953 1.58856 1.6144 1.6309 1.64115 1.64733 1.65095 1.65295 1.65395 1.65432 1.65433 1.65408 1.6537 1.65322 1.65269 1.65212 1.65154 1.65094 1.65034 1.64973 1.64913 1.64853 1.64794 1.64735 1.64678 1.6462 1.64565 1.64509 1.64456 1.64403 1.64353 1.64303 1.64255 1.64209 1.64165 1.64122 1.64081 1.64042 1.64006 1.63972 1.6394 1.6391 1.63883 1.63858 1.63836 1.63816 1.63799 1.63784 1.63772 1.63763 1.63757 1.63752 1.63752 1.63753 1.63758 1.63765 1.63775 1.63787 1.63803 1.6382 1.63841 1.63864 1.63889 1.63917 1.63947 1.6398 1.64015 1.64051 1.64091 1.64131 1.64175 1.64219 1.64266 1.64314 1.64364 1.64415 1.64468 1.64521 1.64576 1.64632 1.6469 1.64747 1.64806 1.64865 1.64925 1.64985 1.65046 1.65106 1.65166 1.65224 1.6528 1.65333 1.65381 1.65419 1.65443 1.65442 1.65404 1.65302 1.651 1.64735 1.64112 1.6308 1.61418 1.58817 1.54891 1.49236 1.41569 1.31906 1.20692 1.0874 0.969934 0.86242 0.769576 0.692877 0.631528 0.583528 0.546529 0.518276 0.496832 0.480609 0.468362 0.459119 0.452145 0.446874 0.442884 0.439855 0.437547 0.435778 0.434415 0.433355 0.432523 0.431863 0.431332 0.430898 0.43054 0.430238 0.429982 0.42976 0.429567 0.429397 0.429247 0.429113 0.428996 0.428892 0.428802 0.428725 0.428659 0.428606 0.428564 0.428532 0.428511 0.428499 0.428495 0.428662 0.428664 0.428673 0.42869 0.428716 0.428753 0.428801 0.42886 0.428932 0.429016 0.429114 0.429228 0.429358 0.429508 0.42968 0.429881 0.430117 0.430396 0.430732 0.431141 0.431645 0.432277 0.433074 0.434094 0.435408 0.437115 0.439344 0.44227 0.446124 0.451215 0.457949 0.466868 0.478682 0.494325 0.514996 0.542228 0.577898 0.624211 0.683505 0.757848 0.848253 0.953633 1.06979 1.18927 1.30279 1.4019 1.48155 1.54098 1.58263 1.61046 1.62836 1.63955 1.64635 1.65036 1.65262 1.65378 1.65427 1.65433 1.65414 1.65378 1.65332 1.65281 1.65225 1.65168 1.65108 1.65049 1.64989 1.6493 1.6487 1.64811 1.64753 1.64696 1.64638 1.64583 1.64528 1.64475 1.64423 1.64373 1.64323 1.64276 1.64229 1.64186 1.64143 1.64103 1.64064 1.64028 1.63994 1.63962 1.63932 1.63906 1.6388 1.63859 1.63839 1.63822 1.63807 1.63795 1.63786 1.6378 1.63776 1.63775 1.63776 1.63781 1.63788 1.63798 1.6381 1.63826 1.63843 1.63864 1.63886 1.63912 1.63939 1.6397 1.64002 1.64037 1.64073 1.64112 1.64152 1.64196 1.6424 1.64286 1.64334 1.64384 1.64434 1.64487 1.6454 1.64595 1.6465 1.64707 1.64765 1.64823 1.64882 1.64942 1.65001 1.65061 1.6512 1.65179 1.65237 1.65292 1.65343 1.65389 1.65424 1.65443 1.65436 1.65387 1.65269 1.65041 1.64636 1.63951 1.62824 1.61022 1.58222 1.54032 1.4806 1.40064 1.30126 1.18758 1.06807 0.952034 0.846862 0.756707 0.682614 0.623546 0.577425 0.541911 0.514804 0.494231 0.478663 0.466907 0.458031 0.45133 0.446264 0.442427 0.439512 0.43729 0.435586 0.434272 0.43325 0.432448 0.43181 0.431298 0.430878 0.430532 0.43024 0.429991 0.429776 0.429589 0.429424 0.429279 0.42915 0.429036 0.428936 0.42885 0.428775 0.428713 0.428662 0.428622 0.428593 0.428575 0.428564 0.428561 0.428731 0.428733 0.42874 0.428754 0.428778 0.428812 0.428856 0.428912 0.42898 0.429061 0.429155 0.429263 0.429388 0.429533 0.429699 0.429893 0.43012 0.430389 0.430712 0.431107 0.431592 0.432199 0.432965 0.433945 0.435206 0.436845 0.438982 0.441788 0.44548 0.450354 0.456798 0.46533 0.476624 0.491573 0.511322 0.537339 0.571432 0.615745 0.672592 0.744114 0.831553 0.934265 1.04866 1.16786 1.28282 1.38478 1.46799 1.53096 1.57563 1.60576 1.62531 1.63761 1.64515 1.64965 1.65221 1.65357 1.65418 1.65433 1.65419 1.65387 1.65343 1.65294 1.65239 1.65183 1.65124 1.65066 1.65006 1.64947 1.64888 1.6483 1.64771 1.64715 1.64658 1.64603 1.64548 1.64496 1.64444 1.64394 1.64344 1.64297 1.64251 1.64208 1.64165 1.64125 1.64087 1.64051 1.64017 1.63985 1.63956 1.63929 1.63904 1.63882 1.63862 1.63846 1.63831 1.63819 1.6381 1.63804 1.638 1.63799 1.638 1.63805 1.63812 1.63822 1.63834 1.63849 1.63867 1.63887 1.6391 1.63935 1.63962 1.63993 1.64024 1.64059 1.64095 1.64134 1.64174 1.64217 1.64261 1.64308 1.64355 1.64404 1.64455 1.64507 1.6456 1.64615 1.64669 1.64726 1.64783 1.64841 1.64899 1.64959 1.65018 1.65077 1.65136 1.65194 1.6525 1.65305 1.65354 1.65397 1.65429 1.65443 1.65427 1.65365 1.65227 1.64969 1.64516 1.63757 1.62517 1.6055 1.57518 1.53026 1.467 1.38348 1.28127 1.16618 1.04698 0.932721 0.830224 0.743034 0.671755 0.615125 0.570996 0.537051 0.511152 0.491495 0.476618 0.465378 0.456888 0.450475 0.445622 0.441946 0.439151 0.43702 0.435384 0.434122 0.433139 0.432368 0.431753 0.431259 0.430855 0.430521 0.430238 0.429998 0.42979 0.429609 0.429449 0.429309 0.429184 0.429074 0.428977 0.428894 0.428822 0.428762 0.428714 0.428677 0.42865 0.428632 0.428623 0.42862 0.428793 0.428794 0.4288 0.428813 0.428834 0.428866 0.428907 0.42896 0.429025 0.429101 0.429191 0.429296 0.429416 0.429555 0.429715 0.429902 0.43012 0.430379 0.43069 0.431069 0.431534 0.432117 0.432851 0.43379 0.434997 0.436564 0.438607 0.441287 0.444811 0.449461 0.455604 0.463733 0.474488 0.488716 0.507507 0.532262 0.56471 0.606928 0.661196 0.729706 0.813917 0.913621 1.02586 1.14443 1.26059 1.3654 1.45241 1.51929 1.56738 1.60018 1.62165 1.63528 1.6437 1.64877 1.6517 1.6533 1.65406 1.65431 1.65423 1.65395 1.65355 1.65307 1.65254 1.65199 1.65141 1.65083 1.65024 1.64966 1.64907 1.64849 1.64791 1.64735 1.64678 1.64624 1.6457 1.64517 1.64465 1.64416 1.64367 1.6432 1.64274 1.64231 1.64188 1.64149 1.6411 1.64075 1.64041 1.6401 1.6398 1.63953 1.63928 1.63907 1.63887 1.6387 1.63855 1.63844 1.63835 1.63829 1.63824 1.63824 1.63825 1.6383 1.63836 1.63847 1.63859 1.63874 1.63891 1.63912 1.63934 1.63959 1.63986 1.64017 1.64048 1.64083 1.64119 1.64158 1.64198 1.6424 1.64284 1.6433 1.64377 1.64426 1.64476 1.64528 1.64581 1.64635 1.6469 1.64746 1.64803 1.64861 1.64918 1.64977 1.65035 1.65094 1.65152 1.6521 1.65265 1.65318 1.65365 1.65406 1.65433 1.6544 1.65415 1.65338 1.65176 1.6488 1.6437 1.63522 1.62149 1.59988 1.56689 1.51854 1.45137 1.36407 1.25903 1.14276 1.02423 0.912136 0.812653 0.728688 0.660413 0.606354 0.564311 0.532003 0.50736 0.488656 0.474495 0.463791 0.455701 0.449587 0.444958 0.441448 0.438778 0.43674 0.435174 0.433966 0.433024 0.432284 0.431694 0.431218 0.430829 0.430507 0.430235 0.430002 0.429801 0.429626 0.429471 0.429335 0.429214 0.429108 0.429014 0.428934 0.428865 0.428807 0.428761 0.428726 0.4287 0.428684 0.428676 0.428674 0.428847 0.428848 0.428853 0.428865 0.428884 0.428914 0.428953 0.429003 0.429064 0.429138 0.429224 0.429325 0.42944 0.429574 0.429728 0.429907 0.430117 0.430366 0.430665 0.431028 0.431474 0.432032 0.432734 0.43363 0.434782 0.436276 0.438223 0.440774 0.444125 0.448545 0.454379 0.462094 0.472295 0.485784 0.503591 0.527046 0.557799 0.597848 0.649426 0.71476 0.795499 0.891856 1.00153 1.11902 1.23606 1.34363 1.4346 1.50573 1.55767 1.59354 1.61727 1.63246 1.64193 1.64769 1.65106 1.65295 1.65389 1.65426 1.65426 1.65403 1.65366 1.65321 1.65269 1.65215 1.65159 1.65101 1.65043 1.64985 1.64927 1.6487 1.64812 1.64756 1.647 1.64646 1.64592 1.6454 1.64488 1.64439 1.6439 1.64344 1.64298 1.64255 1.64213 1.64173 1.64135 1.641 1.64066 1.64035 1.64005 1.63979 1.63954 1.63932 1.63912 1.63896 1.63881 1.6387 1.6386 1.63854 1.6385 1.63849 1.63851 1.63855 1.63862 1.63872 1.63884 1.63899 1.63916 1.63937 1.63959 1.63984 1.64011 1.64041 1.64073 1.64107 1.64143 1.64182 1.64221 1.64264 1.64307 1.64353 1.644 1.64449 1.64499 1.64551 1.64603 1.64657 1.64711 1.64767 1.64823 1.64881 1.64938 1.64996 1.65054 1.65113 1.6517 1.65226 1.6528 1.65332 1.65377 1.65414 1.65436 1.65435 1.65398 1.65302 1.65112 1.64771 1.64192 1.63238 1.61708 1.59321 1.55713 1.50494 1.43351 1.34226 1.23449 1.11737 0.999936 0.890433 0.794302 0.713805 0.648699 0.59732 0.557436 0.526816 0.503467 0.485741 0.472316 0.462163 0.454484 0.448676 0.444276 0.440937 0.438395 0.436453 0.43496 0.433806 0.432905 0.432197 0.431631 0.431175 0.430801 0.430491 0.430228 0.430004 0.42981 0.42964 0.42949 0.429358 0.429241 0.429138 0.429048 0.42897 0.428903 0.428848 0.428804 0.42877 0.428746 0.428731 0.428723 0.428721 0.428894 0.428895 0.428899 0.42891 0.428928 0.428956 0.428993 0.429041 0.4291 0.42917 0.429253 0.429349 0.429461 0.429589 0.429738 0.42991 0.430112 0.430351 0.430637 0.430985 0.431412 0.431944 0.432614 0.433468 0.434564 0.435984 0.437832 0.440252 0.443429 0.447614 0.453135 0.460429 0.470068 0.482804 0.49961 0.521742 0.550765 0.588591 0.637394 0.699413 0.776459 0.869138 0.975796 1.09172 1.20923 1.31934 1.41434 1.49005 1.54627 1.58565 1.61201 1.62906 1.63977 1.64635 1.65027 1.6525 1.65367 1.65418 1.65427 1.65411 1.65378 1.65335 1.65286 1.65233 1.65177 1.65121 1.65063 1.65006 1.64948 1.64891 1.64834 1.64779 1.64723 1.64669 1.64615 1.64564 1.64512 1.64463 1.64414 1.64368 1.64323 1.6428 1.64238 1.64199 1.64161 1.64125 1.64091 1.64061 1.64031 1.64005 1.6398 1.63959 1.63939 1.63922 1.63908 1.63896 1.63887 1.63881 1.63877 1.63876 1.63877 1.63882 1.63889 1.63899 1.63911 1.63926 1.63943 1.63963 1.63985 1.6401 1.64037 1.64067 1.64099 1.64133 1.64169 1.64207 1.64247 1.64289 1.64332 1.64378 1.64424 1.64473 1.64522 1.64574 1.64626 1.6468 1.64734 1.64789 1.64845 1.64902 1.64959 1.65017 1.65074 1.65132 1.65188 1.65244 1.65296 1.65346 1.65388 1.65421 1.65437 1.65427 1.65375 1.65257 1.65031 1.64637 1.63975 1.62895 1.6118 1.58528 1.54568 1.4892 1.41319 1.31793 1.20765 1.09009 0.974257 0.867781 0.775331 0.698522 0.636722 0.588109 0.550439 0.521541 0.499508 0.482779 0.470101 0.460508 0.453247 0.447751 0.443583 0.440418 0.438006 0.436161 0.434741 0.433643 0.432784 0.432108 0.431567 0.43113 0.430771 0.430472 0.43022 0.430004 0.429816 0.429651 0.429506 0.429378 0.429265 0.429165 0.429077 0.429001 0.428937 0.428884 0.428841 0.428808 0.428785 0.428771 0.428763 0.428761 0.428934 0.428935 0.428939 0.428949 0.428966 0.428992 0.429028 0.429073 0.42913 0.429198 0.429277 0.42937 0.429478 0.429602 0.429744 0.42991 0.430104 0.430334 0.430608 0.43094 0.431348 0.431855 0.432493 0.433304 0.434344 0.43569 0.437439 0.439727 0.442728 0.446677 0.451882 0.458753 0.467824 0.479802 0.4956 0.516396 0.54367 0.57924 0.625207 0.683802 0.756964 0.845655 0.948851 1.06266 1.18011 1.29242 1.39142 1.47197 1.53291 1.57628 1.60569 1.62492 1.63714 1.64471 1.64927 1.65192 1.65336 1.65405 1.65426 1.65417 1.65389 1.6535 1.65302 1.65251 1.65197 1.65141 1.65084 1.65028 1.6497 1.64914 1.64857 1.64802 1.64747 1.64693 1.6464 1.64588 1.64537 1.64488 1.6444 1.64394 1.64349 1.64306 1.64264 1.64225 1.64187 1.64152 1.64118 1.64088 1.64058 1.64032 1.64007 1.63986 1.63966 1.6395 1.63935 1.63924 1.63914 1.63908 1.63904 1.63904 1.63905 1.6391 1.63916 1.63926 1.63938 1.63953 1.6397 1.6399 1.64012 1.64037 1.64064 1.64094 1.64125 1.64159 1.64195 1.64233 1.64273 1.64315 1.64358 1.64403 1.6445 1.64498 1.64547 1.64598 1.6465 1.64704 1.64757 1.64813 1.64868 1.64925 1.64981 1.65038 1.65095 1.65152 1.65207 1.65262 1.65313 1.6536 1.65399 1.65427 1.65435 1.65414 1.65344 1.65199 1.64931 1.64471 1.63709 1.6248 1.60544 1.57586 1.53226 1.47105 1.39021 1.29098 1.17852 1.06106 0.947368 0.844366 0.755906 0.682976 0.624591 0.578803 0.54338 0.516223 0.49552 0.479794 0.467871 0.458841 0.452001 0.44682 0.442886 0.439897 0.437615 0.435868 0.434522 0.433479 0.432662 0.432018 0.431501 0.431084 0.430739 0.430453 0.430209 0.430001 0.429819 0.42966 0.429519 0.429395 0.429285 0.429188 0.429102 0.429029 0.428966 0.428914 0.428873 0.428841 0.428819 0.428805 0.428798 0.428796 0.428967 0.428967 0.428971 0.428981 0.428997 0.429022 0.429056 0.429101 0.429155 0.42922 0.429297 0.429387 0.429491 0.429611 0.429748 0.429908 0.430094 0.430315 0.430577 0.430895 0.431283 0.431766 0.432371 0.433141 0.434125 0.435397 0.437047 0.439204 0.442028 0.445741 0.45063 0.457078 0.465582 0.476804 0.491593 0.511053 0.536573 0.569875 0.612973 0.668065 0.737186 0.821606 0.920898 1.032 1.14877 1.26281 1.36564 1.4512 1.51727 1.56515 1.5981 1.6199 1.6339 1.64267 1.64802 1.65119 1.65296 1.65386 1.65421 1.65421 1.65399 1.65364 1.65319 1.6527 1.65217 1.65163 1.65107 1.65051 1.64994 1.64938 1.64882 1.64827 1.64772 1.64719 1.64666 1.64614 1.64564 1.64515 1.64467 1.64421 1.64376 1.64333 1.64292 1.64253 1.64215 1.6418 1.64147 1.64116 1.64087 1.6406 1.64036 1.64015 1.63995 1.63978 1.63964 1.63953 1.63943 1.63937 1.63933 1.63932 1.63934 1.63938 1.63945 1.63955 1.63967 1.63982 1.63999 1.64019 1.64041 1.64066 1.64092 1.64122 1.64153 1.64187 1.64223 1.64261 1.643 1.64342 1.64385 1.6443 1.64476 1.64524 1.64573 1.64624 1.64676 1.64729 1.64782 1.64837 1.64892 1.64948 1.65004 1.65061 1.65117 1.65173 1.65228 1.65281 1.6533 1.65374 1.65409 1.65431 1.6543 1.65394 1.65303 1.65124 1.64805 1.64266 1.63383 1.61975 1.59781 1.56467 1.51656 1.45021 1.36437 1.26133 1.14719 1.03044 0.919476 0.820388 0.7362 0.667303 0.612411 0.569482 0.536319 0.510908 0.491534 0.476812 0.465642 0.457176 0.450757 0.44589 0.442191 0.439376 0.437225 0.435576 0.434303 0.433315 0.43254 0.431927 0.431435 0.431036 0.430707 0.430431 0.430197 0.429996 0.42982 0.429666 0.429529 0.429409 0.429301 0.429207 0.429123 0.429052 0.42899 0.42894 0.428899 0.428868 0.428846 0.428833 0.428826 0.428824 0.428993 0.428993 0.428997 0.429006 0.429022 0.429047 0.42908 0.429123 0.429175 0.429239 0.429313 0.4294 0.429501 0.429616 0.429749 0.429903 0.430083 0.430294 0.430545 0.430848 0.431218 0.431677 0.432251 0.432978 0.433907 0.435106 0.436659 0.438684 0.441334 0.444814 0.449389 0.455417 0.46336 0.473831 0.48762 0.505755 0.529532 0.560571 0.600791 0.652336 0.717296 0.797201 0.892169 0.999965 1.11535 1.23051 1.33683 1.42745 1.49903 1.55194 1.58895 1.61379 1.62992 1.64013 1.64644 1.65024 1.65242 1.65359 1.65411 1.65422 1.65408 1.65378 1.65337 1.6529 1.65238 1.65185 1.6513 1.65075 1.65018 1.64963 1.64907 1.64853 1.64798 1.64745 1.64692 1.64641 1.64591 1.64543 1.64495 1.64449 1.64404 1.64362 1.64321 1.64282 1.64244 1.64209 1.64176 1.64145 1.64116 1.6409 1.64066 1.64044 1.64025 1.64008 1.63994 1.63983 1.63973 1.63967 1.63963 1.63962 1.63964 1.63968 1.63975 1.63985 1.63996 1.64011 1.64028 1.64048 1.6407 1.64095 1.64122 1.64151 1.64182 1.64216 1.64251 1.64289 1.64328 1.6437 1.64413 1.64458 1.64504 1.64552 1.646 1.64651 1.64702 1.64755 1.64808 1.64863 1.64917 1.64973 1.65029 1.65085 1.6514 1.65195 1.65248 1.653 1.65346 1.65387 1.65417 1.65431 1.65419 1.65367 1.65249 1.65029 1.64646 1.64011 1.62982 1.61359 1.58861 1.5514 1.49825 1.42639 1.33551 1.229 1.11377 0.99845 0.890811 0.796057 0.716382 0.651638 0.600283 0.560222 0.529312 0.505637 0.487582 0.473855 0.463432 0.455525 0.449524 0.444967 0.441501 0.43886 0.436838 0.435286 0.434086 0.433153 0.43242 0.431838 0.43137 0.430989 0.430673 0.430409 0.430183 0.429989 0.429819 0.429669 0.429536 0.429419 0.429314 0.429222 0.42914 0.42907 0.42901 0.428961 0.428921 0.42889 0.428869 0.428855 0.428848 0.428846 0.429012 0.429013 0.429016 0.429025 0.429041 0.429065 0.429097 0.429139 0.429191 0.429252 0.429325 0.42941 0.429507 0.429619 0.42