# vtk DataFile Version 3.0
Immiscible displacement
ASCII
DATASET RECTILINEAR_GRID
DIMENSIONS 200 200 1
X_COORDINATES 200 double
1 2 3 4 5 6 7 8 9 10 11 12 13 14 15 16 17 18 19 20 21 22 23 24 25 26 27 28 29 30 31 32 33 34 35 36 37 38 39 40 41 42 43 44 45 46 47 48 49 50 51 52 53 54 55 56 57 58 59 60 61 62 63 64 65 66 67 68 69 70 71 72 73 74 75 76 77 78 79 80 81 82 83 84 85 86 87 88 89 90 91 92 93 94 95 96 97 98 99 100 101 102 103 104 105 106 107 108 109 110 111 112 113 114 115 116 117 118 119 120 121 122 123 124 125 126 127 128 129 130 131 132 133 134 135 136 137 138 139 140 141 142 143 144 145 146 147 148 149 150 151 152 153 154 155 156 157 158 159 160 161 162 163 164 165 166 167 168 169 170 171 172 173 174 175 176 177 178 179 180 181 182 183 184 185 186 187 188 189 190 191 192 193 194 195 196 197 198 199 200 
Y_COORDINATES 200 double
1 2 3 4 5 6 7 8 9 10 11 12 13 14 15 16 17 18 19 20 21 22 23 24 25 26 27 28 29 30 31 32 33 34 35 36 37 38 39 40 41 42 43 44 45 46 47 48 49 50 51 52 53 54 55 56 57 58 59 60 61 62 63 64 65 66 67 68 69 70 71 72 73 74 75 76 77 78 79 80 81 82 83 84 85 86 87 88 89 90 91 92 93 94 95 96 97 98 99 100 101 102 103 104 105 106 107 108 109 110 111 112 113 114 115 116 117 118 119 120 121 122 123 124 125 126 127 128 129 130 131 132 133 134 135 136 137 138 139 140 141 142 143 144 145 146 147 148 149 150 151 152 153 154 155 156 157 158 159 160 161 162 163 164 165 166 167 168 169 170 171 172 173 174 175 176 177 178 179 180 181 182 183 184 185 186 187 188 189 190 191 192 193 194 195 196 197 198 199 200 
Z_COORDINATES 1 double
0
POINT_DATA 40000
SCALARS rho double 1
LOOKUP_TABLE default
0.427372 0.427397 0.427437 0.42749 0.427555 0.427634 0.427729 0.427841 0.427971 0.428122 0.428294 0.428489 0.428709 0.428957 0.429236 0.429553 0.429914 0.43033 0.430816 0.431393 0.432086 0.432935 0.433988 0.435316 0.437008 0.439189 0.442022 0.44573 0.450606 0.457045 0.465567 0.476869 0.491858 0.511724 0.537981 0.572523 0.617583 0.675597 0.748786 0.838405 0.943625 1.06045 1.18142 1.29694 1.39808 1.47939 1.53989 1.58209 1.61005 1.62785 1.63882 1.64536 1.64909 1.65107 1.65197 1.6522 1.65202 1.65158 1.65099 1.65031 1.64956 1.64878 1.64797 1.64716 1.64634 1.64552 1.6447 1.64389 1.64307 1.64228 1.64148 1.6407 1.63993 1.63917 1.63843 1.63771 1.63699 1.63631 1.63563 1.63499 1.63436 1.63376 1.63318 1.63263 1.6321 1.63161 1.63114 1.6307 1.6303 1.62993 1.62959 1.62928 1.62901 1.62878 1.62858 1.62842 1.62829 1.6282 1.62815 1.62813 1.62816 1.62822 1.62831 1.62845 1.62862 1.62883 1.62907 1.62935 1.62966 1.63001 1.63039 1.6308 1.63124 1.63172 1.63222 1.63275 1.63331 1.63389 1.6345 1.63513 1.63578 1.63646 1.63715 1.63786 1.63858 1.63933 1.64009 1.64086 1.64164 1.64243 1.64323 1.64404 1.64486 1.64568 1.64649 1.64732 1.64812 1.64893 1.6497 1.65045 1.65113 1.65172 1.65214 1.65232 1.65207 1.65116 1.64914 1.64537 1.63876 1.62769 1.60972 1.58152 1.53901 1.47813 1.39642 1.29493 1.17922 1.05825 0.941585 0.836645 0.747352 0.674484 0.616754 0.571933 0.537585 0.51148 0.491735 0.47684 0.465611 0.457145 0.45075 0.445909 0.442228 0.439416 0.437251 0.435571 0.434252 0.433205 0.43236 0.431668 0.431091 0.430603 0.430183 0.429817 0.429493 0.429206 0.428949 0.428719 0.428514 0.428331 0.42817 0.428029 0.427908 0.427806 0.427721 0.427652 0.427597 0.427556 0.427525 0.427507 0.427403 0.427424 0.427461 0.427513 0.427577 0.427656 0.42775 0.427862 0.427992 0.428142 0.428313 0.428507 0.428726 0.428973 0.42925 0.429565 0.429924 0.430338 0.430821 0.431395 0.432085 0.43293 0.433978 0.435299 0.436983 0.439154 0.441974 0.445665 0.450517 0.456925 0.465406 0.476652 0.491565 0.511331 0.537455 0.571823 0.616658 0.674397 0.747263 0.836542 0.941452 1.05808 1.17901 1.29471 1.39618 1.47791 1.53881 1.58135 1.60956 1.62755 1.63863 1.64524 1.64902 1.65104 1.65195 1.6522 1.65203 1.6516 1.65101 1.65033 1.64959 1.64881 1.64801 1.6472 1.64638 1.64557 1.64474 1.64394 1.64312 1.64233 1.64153 1.64076 1.63999 1.63924 1.63849 1.63777 1.63706 1.63638 1.6357 1.63506 1.63443 1.63384 1.63326 1.63271 1.63218 1.63169 1.63122 1.63079 1.63038 1.63002 1.62968 1.62938 1.6291 1.62887 1.62867 1.62851 1.62838 1.6283 1.62824 1.62823 1.62825 1.62832 1.62841 1.62855 1.62871 1.62892 1.62916 1.62944 1.62975 1.6301 1.63048 1.63089 1.63133 1.6318 1.6323 1.63283 1.63338 1.63397 1.63457 1.6352 1.63585 1.63653 1.63721 1.63793 1.63865 1.63939 1.64014 1.64092 1.64169 1.64249 1.64328 1.64409 1.6449 1.64572 1.64653 1.64735 1.64816 1.64896 1.64973 1.65047 1.65115 1.65173 1.65215 1.65232 1.65206 1.65112 1.64908 1.64525 1.63857 1.62738 1.60923 1.58078 1.53793 1.47664 1.39452 1.2927 1.17682 1.05588 0.939425 0.834795 0.745841 0.673294 0.615837 0.571238 0.537063 0.511091 0.491444 0.476624 0.46545 0.457026 0.450661 0.445844 0.442179 0.439381 0.437225 0.435554 0.434241 0.433199 0.432357 0.431669 0.431095 0.43061 0.430191 0.429828 0.429506 0.42922 0.428964 0.428736 0.428531 0.428349 0.428188 0.428048 0.427926 0.427824 0.427739 0.42767 0.427616 0.427574 0.427545 0.42753 0.427452 0.42747 0.427503 0.427551 0.427614 0.427692 0.427785 0.427896 0.428025 0.428175 0.428344 0.428537 0.428754 0.428998 0.429273 0.429585 0.42994 0.430351 0.430829 0.431397 0.43208 0.432917 0.433956 0.435265 0.436934 0.439085 0.441879 0.445535 0.450342 0.45669 0.46509 0.476227 0.490995 0.510566 0.536432 0.570463 0.614867 0.672072 0.744317 0.832935 0.937245 1.05347 1.17433 1.29034 1.39246 1.47498 1.53667 1.57987 1.60859 1.62693 1.63824 1.64502 1.64889 1.65097 1.65193 1.6522 1.65205 1.65163 1.65105 1.65038 1.64964 1.64887 1.64807 1.64727 1.64645 1.64564 1.64482 1.64402 1.64321 1.64242 1.64163 1.64086 1.64009 1.63934 1.6386 1.63789 1.63718 1.6365 1.63583 1.63519 1.63456 1.63397 1.63339 1.63285 1.63232 1.63184 1.63137 1.63094 1.63054 1.63017 1.62983 1.62953 1.62926 1.62903 1.62883 1.62867 1.62854 1.62846 1.6284 1.62839 1.62841 1.62848 1.62857 1.62871 1.62887 1.62908 1.62932 1.6296 1.62991 1.63026 1.63063 1.63104 1.63147 1.63195 1.63244 1.63297 1.63352 1.6341 1.6347 1.63533 1.63597 1.63664 1.63733 1.63804 1.63876 1.6395 1.64024 1.64101 1.64179 1.64258 1.64337 1.64418 1.64498 1.6458 1.6466 1.64742 1.64822 1.64902 1.64978 1.65052 1.65119 1.65176 1.65217 1.65232 1.65203 1.65105 1.64894 1.64502 1.63818 1.62675 1.60825 1.5793 1.53579 1.47371 1.39079 1.28834 1.17215 1.05129 0.935241 0.831212 0.742917 0.670987 0.61406 0.569889 0.536048 0.510332 0.490878 0.476202 0.465136 0.456792 0.450487 0.445714 0.442084 0.43931 0.437175 0.435518 0.434217 0.433184 0.432351 0.431669 0.4311 0.430619 0.430205 0.429844 0.429525 0.429243 0.428989 0.428762 0.428559 0.428378 0.428218 0.428078 0.427957 0.427855 0.42777 0.427701 0.427647 0.427607 0.42758 0.427566 0.427511 0.427526 0.427556 0.427601 0.427661 0.427737 0.42783 0.42794 0.428068 0.428215 0.428383 0.428574 0.428788 0.42903 0.429301 0.429609 0.429959 0.430364 0.430836 0.431397 0.432071 0.432897 0.433921 0.435214 0.43686 0.438983 0.441739 0.445346 0.450087 0.456347 0.464629 0.475609 0.490165 0.509455 0.534947 0.568489 0.612268 0.668701 0.740043 0.827698 0.931123 1.04674 1.16748 1.28392 1.38695 1.47063 1.53348 1.57766 1.60712 1.62599 1.63766 1.64466 1.64869 1.65087 1.65189 1.6522 1.65207 1.65168 1.65111 1.65045 1.64972 1.64895 1.64816 1.64736 1.64655 1.64575 1.64493 1.64413 1.64333 1.64254 1.64176 1.64099 1.64023 1.63948 1.63875 1.63804 1.63733 1.63666 1.63599 1.63536 1.63474 1.63415 1.63357 1.63303 1.63251 1.63203 1.63156 1.63114 1.63074 1.63037 1.63003 1.62974 1.62947 1.62924 1.62904 1.62889 1.62876 1.62867 1.62862 1.62861 1.62863 1.62869 1.62878 1.62892 1.62908 1.62929 1.62953 1.62981 1.63011 1.63046 1.63083 1.63124 1.63167 1.63214 1.63263 1.63315 1.6337 1.63428 1.63487 1.6355 1.63613 1.6368 1.63748 1.63819 1.6389 1.63964 1.64038 1.64115 1.64191 1.6427 1.64349 1.64429 1.64509 1.6459 1.6467 1.64751 1.64831 1.6491 1.64986 1.65059 1.65124 1.65181 1.65219 1.65231 1.65199 1.65095 1.64874 1.64467 1.63759 1.62581 1.60677 1.57708 1.53258 1.46935 1.38527 1.28193 1.16531 1.04459 0.929151 0.826007 0.738672 0.66764 0.611481 0.567931 0.534575 0.509229 0.490055 0.475588 0.464678 0.456451 0.450233 0.445525 0.441944 0.439207 0.4371 0.435465 0.434181 0.433161 0.432338 0.431665 0.431104 0.430629 0.43022 0.429864 0.429549 0.42927 0.429019 0.428795 0.428593 0.428414 0.428255 0.428116 0.427995 0.427893 0.427808 0.42774 0.427686 0.427647 0.427622 0.42761 0.427574 0.427587 0.427614 0.427657 0.427715 0.427789 0.42788 0.427988 0.428114 0.42826 0.428426 0.428614 0.428826 0.429063 0.429331 0.429634 0.429979 0.430377 0.430841 0.431392 0.432055 0.432868 0.433875 0.435145 0.436764 0.43885 0.441558 0.445101 0.449757 0.455904 0.464035 0.474811 0.489096 0.508023 0.533035 0.565949 0.608924 0.664361 0.734537 0.820939 0.923199 1.038 1.15852 1.27548 1.37966 1.46484 1.5292 1.57468 1.60513 1.62471 1.63686 1.64418 1.64841 1.65072 1.65182 1.65219 1.6521 1.65173 1.65118 1.65053 1.64981 1.64906 1.64827 1.64748 1.64667 1.64587 1.64507 1.64427 1.64347 1.64269 1.64191 1.64115 1.64039 1.63966 1.63892 1.63822 1.63752 1.63685 1.63619 1.63556 1.63494 1.63436 1.63379 1.63325 1.63273 1.63225 1.63179 1.63137 1.63097 1.63061 1.63028 1.62998 1.62971 1.62949 1.62929 1.62914 1.62901 1.62893 1.62887 1.62886 1.62888 1.62894 1.62903 1.62917 1.62933 1.62954 1.62977 1.63005 1.63035 1.63069 1.63106 1.63147 1.6319 1.63236 1.63285 1.63337 1.63391 1.63449 1.63507 1.6357 1.63633 1.63699 1.63767 1.63837 1.63908 1.63981 1.64055 1.64131 1.64207 1.64285 1.64363 1.64443 1.64522 1.64603 1.64682 1.64763 1.64842 1.6492 1.64995 1.65067 1.65131 1.65186 1.65222 1.6523 1.65192 1.6508 1.64846 1.64418 1.63679 1.62452 1.60478 1.57408 1.52828 1.46354 1.37798 1.27349 1.15637 1.03588 0.921265 0.819287 0.733202 0.663331 0.608162 0.565411 0.532678 0.507809 0.488994 0.474797 0.464088 0.456011 0.449905 0.445281 0.441762 0.439073 0.437002 0.435395 0.434132 0.43313 0.43232 0.431658 0.431106 0.430638 0.430236 0.429885 0.429574 0.429299 0.429051 0.42883 0.428631 0.428453 0.428295 0.428157 0.428038 0.427936 0.427851 0.427783 0.427731 0.427693 0.427669 0.427658 0.427639 0.42765 0.427675 0.427715 0.427771 0.427843 0.427932 0.428039 0.428163 0.428307 0.428471 0.428656 0.428864 0.429098 0.42936 0.429658 0.429997 0.430388 0.430843 0.431384 0.432034 0.43283 0.433817 0.435061 0.436646 0.438688 0.441339 0.444805 0.44936 0.455371 0.463319 0.473851 0.48781 0.5063 0.530735 0.562893 0.604898 0.659133 0.727893 0.812762 0.913578 1.02732 1.14751 1.26503 1.37057 1.45756 1.52378 1.57088 1.6026 1.62307 1.63584 1.64356 1.64805 1.65053 1.65174 1.65218 1.65213 1.65179 1.65126 1.65063 1.64992 1.64918 1.6484 1.64762 1.64682 1.64602 1.64522 1.64443 1.64364 1.64287 1.64209 1.64134 1.64058 1.63985 1.63913 1.63843 1.63773 1.63707 1.63641 1.63579 1.63518 1.6346 1.63403 1.6335 1.63299 1.63251 1.63205 1.63164 1.63124 1.63088 1.63055 1.63026 1.62999 1.62977 1.62957 1.62942 1.62929 1.62921 1.62916 1.62915 1.62917 1.62923 1.62932 1.62945 1.62961 1.62982 1.63005 1.63033 1.63062 1.63096 1.63133 1.63173 1.63215 1.63262 1.6331 1.63362 1.63415 1.63472 1.63531 1.63592 1.63655 1.63721 1.63788 1.63857 1.63928 1.64 1.64074 1.64149 1.64225 1.64302 1.6438 1.64459 1.64537 1.64617 1.64696 1.64776 1.64854 1.64932 1.65006 1.65077 1.65139 1.65192 1.65225 1.65229 1.65183 1.6506 1.64809 1.64355 1.63576 1.62287 1.60222 1.57027 1.52284 1.45625 1.36887 1.26304 1.14538 1.02524 0.911688 0.811156 0.7266 0.658139 0.604165 0.562378 0.530395 0.5061 0.487718 0.473844 0.463378 0.455481 0.44951 0.444987 0.441544 0.438912 0.436884 0.435309 0.434072 0.43309 0.432296 0.431646 0.431104 0.430645 0.43025 0.429905 0.429599 0.429328 0.429084 0.428866 0.428669 0.428493 0.428337 0.4282 0.428081 0.42798 0.427896 0.427829 0.427777 0.42774 0.427717 0.427707 0.427701 0.427712 0.427735 0.427773 0.427827 0.427897 0.427985 0.428089 0.428212 0.428354 0.428515 0.428697 0.428901 0.429131 0.429389 0.429681 0.430013 0.430396 0.430842 0.431371 0.432006 0.432784 0.433748 0.434963 0.436509 0.438501 0.441085 0.444464 0.448902 0.454756 0.462494 0.472745 0.486327 0.504315 0.528085 0.55937 0.600256 0.653097 0.720208 0.803274 0.902363 1.01481 1.13451 1.25258 1.35963 1.44873 1.51716 1.56621 1.59945 1.62103 1.63456 1.64278 1.64759 1.65028 1.65162 1.65215 1.65216 1.65186 1.65136 1.65074 1.65005 1.64931 1.64855 1.64777 1.64698 1.64619 1.6454 1.64462 1.64383 1.64306 1.64229 1.64155 1.6408 1.64007 1.63935 1.63866 1.63797 1.63731 1.63666 1.63604 1.63544 1.63486 1.6343 1.63377 1.63327 1.63279 1.63234 1.63193 1.63153 1.63118 1.63085 1.63056 1.6303 1.63008 1.62988 1.62973 1.6296 1.62952 1.62947 1.62946 1.62948 1.62954 1.62963 1.62976 1.62992 1.63013 1.63036 1.63063 1.63092 1.63126 1.63162 1.63202 1.63244 1.6329 1.63338 1.63389 1.63442 1.63499 1.63557 1.63618 1.6368 1.63745 1.63811 1.6388 1.6395 1.64022 1.64095 1.6417 1.64245 1.64321 1.64398 1.64477 1.64555 1.64634 1.64713 1.64792 1.64869 1.64945 1.65018 1.65088 1.65148 1.65198 1.65227 1.65225 1.65171 1.65035 1.64763 1.64276 1.63446 1.62082 1.59906 1.56557 1.5162 1.44739 1.35792 1.25059 1.1324 1.01276 0.900521 0.801718 0.718961 0.652143 0.599556 0.558881 0.527765 0.50413 0.486247 0.472747 0.462559 0.45487 0.449055 0.444647 0.441291 0.438725 0.436746 0.43521 0.434002 0.433041 0.432266 0.43163 0.431099 0.430649 0.430261 0.429923 0.429623 0.429356 0.429116 0.428901 0.428706 0.428533 0.428378 0.428243 0.428124 0.428024 0.427941 0.427874 0.427823 0.427787 0.427765 0.427755 0.427761 0.427771 0.427793 0.427829 0.427882 0.42795 0.428035 0.428138 0.428259 0.428398 0.428557 0.428736 0.428937 0.429162 0.429415 0.429701 0.430026 0.430401 0.430836 0.431353 0.431973 0.432731 0.43367 0.434852 0.436356 0.438292 0.440802 0.444083 0.44839 0.454069 0.461573 0.47151 0.484671 0.502098 0.525123 0.555433 0.595062 0.646335 0.711577 0.792581 0.889657 1.00053 1.11954 1.2381 1.34679 1.43825 1.50923 1.56058 1.59564 1.61854 1.63298 1.64181 1.64702 1.64996 1.65147 1.6521 1.65218 1.65193 1.65146 1.65087 1.65019 1.64947 1.64871 1.64794 1.64716 1.64638 1.64559 1.64482 1.64404 1.64328 1.64252 1.64177 1.64103 1.64032 1.6396 1.63891 1.63823 1.63758 1.63693 1.63632 1.63572 1.63515 1.63459 1.63407 1.63357 1.6331 1.63265 1.63224 1.63185 1.6315 1.63118 1.63089 1.63063 1.63041 1.63022 1.63007 1.62994 1.62986 1.62981 1.6298 1.62982 1.62988 1.62997 1.6301 1.63026 1.63046 1.63069 1.63095 1.63125 1.63158 1.63194 1.63233 1.63275 1.6332 1.63368 1.63419 1.63471 1.63527 1.63585 1.63645 1.63707 1.63772 1.63837 1.63906 1.63975 1.64046 1.64118 1.64192 1.64267 1.64343 1.64419 1.64497 1.64574 1.64653 1.6473 1.64809 1.64885 1.64961 1.65032 1.651 1.65158 1.65205 1.65229 1.65221 1.65156 1.65003 1.64706 1.64179 1.63288 1.61832 1.59523 1.55991 1.50823 1.43688 1.34506 1.23612 1.11746 0.998528 0.887868 0.79108 0.71038 0.645423 0.594397 0.554971 0.524825 0.501929 0.484603 0.471521 0.461645 0.454189 0.448546 0.444268 0.441009 0.438516 0.436592 0.435098 0.433921 0.432986 0.432229 0.431609 0.43109 0.430651 0.430271 0.429939 0.429644 0.429382 0.429146 0.428934 0.428742 0.428571 0.428418 0.428283 0.428166 0.428066 0.427983 0.427917 0.427867 0.427831 0.42781 0.4278 0.427816 0.427825 0.427847 0.427882 0.427933 0.428 0.428084 0.428185 0.428303 0.428441 0.428596 0.428772 0.42897 0.429191 0.429439 0.429719 0.430037 0.430402 0.430827 0.43133 0.431933 0.43267 0.433582 0.434729 0.436187 0.438063 0.440493 0.443667 0.447832 0.45332 0.460568 0.470162 0.482864 0.499678 0.521889 0.551131 0.589383 0.638928 0.702099 0.780791 0.875567 0.984572 1.10265 1.22158 1.33195 1.426 1.49987 1.55386 1.59106 1.61554 1.63107 1.64063 1.64632 1.64957 1.65127 1.65203 1.6522 1.652 1.65156 1.651 1.65034 1.64964 1.64889 1.64813 1.64736 1.64659 1.64581 1.64504 1.64427 1.64352 1.64276 1.64202 1.64129 1.64058 1.63987 1.63919 1.63851 1.63787 1.63723 1.63662 1.63602 1.63546 1.63491 1.63439 1.63389 1.63343 1.63299 1.63258 1.63219 1.63185 1.63152 1.63124 1.63098 1.63077 1.63057 1.63042 1.6303 1.63022 1.63017 1.63016 1.63018 1.63024 1.63033 1.63046 1.63061 1.63081 1.63104 1.6313 1.63159 1.63192 1.63228 1.63267 1.63308 1.63353 1.634 1.6345 1.63502 1.63558 1.63615 1.63675 1.63736 1.638 1.63865 1.63933 1.64001 1.64072 1.64144 1.64217 1.64291 1.64366 1.64442 1.64519 1.64595 1.64673 1.6475 1.64827 1.64903 1.64977 1.65047 1.65113 1.65169 1.65212 1.65231 1.65214 1.65136 1.64963 1.64635 1.6406 1.63095 1.61529 1.59062 1.55316 1.49883 1.4246 1.3302 1.2196 1.10059 0.982617 0.873835 0.779348 0.700956 0.638062 0.588755 0.550699 0.521614 0.499527 0.48281 0.470183 0.460648 0.453445 0.447992 0.443855 0.440702 0.438288 0.436424 0.434974 0.433833 0.432924 0.432188 0.431584 0.431078 0.430649 0.430277 0.429952 0.429663 0.429406 0.429173 0.428964 0.428775 0.428606 0.428455 0.428321 0.428205 0.428106 0.428024 0.427958 0.427908 0.427873 0.427851 0.427842 0.427866 0.427875 0.427895 0.42793 0.42798 0.428046 0.428128 0.428227 0.428344 0.428479 0.428633 0.428806 0.428999 0.429216 0.429459 0.429733 0.430044 0.4304 0.430814 0.431304 0.431889 0.432604 0.433488 0.434597 0.436007 0.437818 0.440162 0.443222 0.447234 0.452518 0.459492 0.468719 0.480928 0.497084 0.518422 0.546516 0.583284 0.63096 0.691875 0.768018 0.860206 0.967028 1.08388 1.203 1.31503 1.41186 1.48892 1.54593 1.58561 1.61194 1.62876 1.6392 1.64546 1.64908 1.65102 1.65194 1.6522 1.65207 1.65168 1.65114 1.65051 1.64982 1.64909 1.64834 1.64758 1.64681 1.64604 1.64528 1.64452 1.64377 1.64302 1.64229 1.64157 1.64086 1.64016 1.63948 1.63882 1.63817 1.63754 1.63694 1.63635 1.63579 1.63524 1.63473 1.63424 1.63378 1.63334 1.63294 1.63256 1.63221 1.63189 1.63161 1.63136 1.63114 1.63095 1.63081 1.63068 1.63061 1.63055 1.63054 1.63056 1.63062 1.63071 1.63084 1.63099 1.63119 1.63141 1.63167 1.63196 1.63229 1.63264 1.63303 1.63343 1.63388 1.63434 1.63484 1.63536 1.63591 1.63647 1.63707 1.63767 1.63831 1.63895 1.63962 1.6403 1.641 1.64171 1.64244 1.64317 1.64392 1.64466 1.64543 1.64619 1.64696 1.64772 1.64848 1.64922 1.64995 1.65064 1.65127 1.6518 1.65218 1.65231 1.65204 1.6511 1.64913 1.64548 1.63916 1.62863 1.61166 1.58513 1.54519 1.48784 1.41041 1.31326 1.20102 1.08185 0.965124 0.858537 0.766637 0.690788 0.630142 0.582695 0.546115 0.518171 0.496952 0.480888 0.468751 0.45958 0.452649 0.447399 0.443414 0.440373 0.438043 0.436243 0.434842 0.433737 0.432856 0.432142 0.431555 0.431062 0.430643 0.43028 0.429962 0.429679 0.429426 0.429198 0.428992 0.428805 0.428638 0.428488 0.428356 0.428241 0.428143 0.428061 0.427995 0.427945 0.42791 0.427889 0.42788 0.42791 0.427919 0.427939 0.427973 0.428022 0.428087 0.428168 0.428266 0.428381 0.428514 0.428665 0.428835 0.429025 0.429238 0.429476 0.429744 0.430047 0.430395 0.430798 0.431273 0.431841 0.432533 0.433387 0.434458 0.435816 0.437559 0.439813 0.442753 0.446604 0.451673 0.458358 0.467196 0.478885 0.494347 0.514762 0.54164 0.576833 0.622516 0.681008 0.75438 0.843698 0.948002 1.06329 1.18233 1.29594 1.39565 1.47621 1.53662 1.57914 1.60763 1.62599 1.63746 1.64441 1.64847 1.6507 1.6518 1.65218 1.65213 1.65179 1.6513 1.65068 1.65001 1.6493 1.64856 1.64781 1.64706 1.64629 1.64554 1.64479 1.64404 1.6433 1.64258 1.64186 1.64116 1.64047 1.6398 1.63914 1.6385 1.63787 1.63728 1.63669 1.63614 1.6356 1.63509 1.6346 1.63415 1.63372 1.63332 1.63294 1.6326 1.63228 1.63201 1.63175 1.63154 1.63135 1.63121 1.63109 1.63101 1.63096 1.63095 1.63096 1.63102 1.63111 1.63124 1.63139 1.63159 1.63181 1.63207 1.63235 1.63267 1.63302 1.6334 1.63381 1.63425 1.63471 1.6352 1.63571 1.63626 1.63681 1.6374 1.638 1.63863 1.63927 1.63993 1.64061 1.6413 1.642 1.64272 1.64344 1.64419 1.64493 1.64568 1.64643 1.6472 1.64795 1.6487 1.64943 1.65015 1.65081 1.65142 1.65191 1.65224 1.65229 1.6519 1.65078 1.64852 1.64442 1.6374 1.62583 1.60733 1.57863 1.53582 1.47508 1.39416 1.29415 1.18035 1.0613 0.946154 0.842094 0.753065 0.67998 0.621748 0.576284 0.541271 0.514535 0.494233 0.47886 0.467239 0.458454 0.45181 0.446774 0.442948 0.440027 0.437786 0.436053 0.434702 0.433636 0.432784 0.432092 0.431522 0.431043 0.430635 0.430281 0.42997 0.429692 0.429444 0.429219 0.429016 0.428832 0.428667 0.428519 0.428388 0.428273 0.428175 0.428094 0.428028 0.427978 0.427944 0.427922 0.427913 0.427948 0.427957 0.427977 0.42801 0.428059 0.428123 0.428203 0.4283 0.428414 0.428545 0.428694 0.428861 0.429048 0.429257 0.42949 0.429752 0.430048 0.430387 0.430778 0.431239 0.431789 0.432457 0.433281 0.434311 0.435616 0.437289 0.439451 0.442265 0.445949 0.450792 0.457176 0.46561 0.476757 0.491494 0.510945 0.536553 0.570095 0.613682 0.669604 0.740002 0.826175 0.927616 1.04096 1.15959 1.2746 1.37724 1.46155 1.52572 1.57149 1.60249 1.62265 1.63535 1.64312 1.64771 1.65029 1.65161 1.65214 1.65218 1.65191 1.65145 1.65087 1.65022 1.64952 1.6488 1.64806 1.64732 1.64656 1.64582 1.64507 1.64434 1.6436 1.64289 1.64217 1.64148 1.6408 1.64013 1.63948 1.63885 1.63823 1.63764 1.63706 1.63651 1.63598 1.63547 1.63499 1.63454 1.63411 1.63372 1.63334 1.63301 1.63269 1.63242 1.63217 1.63196 1.63177 1.63163 1.63151 1.63143 1.63138 1.63137 1.63139 1.63145 1.63153 1.63166 1.63181 1.632 1.63222 1.63248 1.63276 1.63308 1.63342 1.6338 1.6342 1.63464 1.63509 1.63558 1.63609 1.63662 1.63718 1.63776 1.63835 1.63897 1.63961 1.64026 1.64093 1.64162 1.64231 1.64303 1.64374 1.64448 1.64521 1.64596 1.6467 1.64745 1.64819 1.64894 1.64965 1.65035 1.651 1.65158 1.65203 1.65229 1.65224 1.6517 1.65036 1.64776 1.64312 1.63528 1.62247 1.60216 1.57094 1.52488 1.46036 1.3757 1.27278 1.15762 1.03901 0.925827 0.824639 0.738755 0.668637 0.612964 0.569587 0.536216 0.510744 0.4914 0.476747 0.465665 0.457282 0.450937 0.446124 0.442464 0.439666 0.437518 0.435855 0.434556 0.433529 0.432708 0.432039 0.431487 0.431022 0.430625 0.430279 0.429974 0.429703 0.429458 0.429237 0.429037 0.428856 0.428692 0.428545 0.428415 0.428301 0.428204 0.428122 0.428057 0.428007 0.427972 0.427951 0.427941 0.42798 0.427989 0.428009 0.428042 0.428091 0.428154 0.428234 0.42833 0.428442 0.428571 0.428718 0.428883 0.429067 0.429272 0.429501 0.429757 0.430046 0.430376 0.430756 0.431203 0.431734 0.432379 0.433171 0.43416 0.435411 0.437012 0.439077 0.441763 0.445274 0.449886 0.45596 0.463976 0.474564 0.488553 0.50701 0.531306 0.563138 0.604542 0.657771 0.725014 0.80778 0.906007 1.01698 1.13479 1.25092 1.35645 1.44471 1.51303 1.56247 1.59636 1.61864 1.6328 1.64154 1.64678 1.64977 1.65136 1.65206 1.65221 1.65202 1.65161 1.65106 1.65044 1.64976 1.64905 1.64832 1.64759 1.64685 1.64611 1.64537 1.64465 1.64392 1.64321 1.64251 1.64182 1.64114 1.64048 1.63984 1.63921 1.6386 1.63801 1.63744 1.6369 1.63637 1.63587 1.6354 1.63495 1.63452 1.63413 1.63376 1.63343 1.63312 1.63285 1.6326 1.63239 1.63221 1.63207 1.63195 1.63187 1.63182 1.63181 1.63183 1.63189 1.63197 1.6321 1.63225 1.63244 1.63265 1.63291 1.63319 1.6335 1.63384 1.63422 1.63461 1.63504 1.63549 1.63598 1.63648 1.63701 1.63756 1.63813 1.63872 1.63934 1.63996 1.64061 1.64127 1.64195 1.64264 1.64335 1.64406 1.64478 1.64551 1.64625 1.64698 1.64773 1.64846 1.64919 1.64989 1.65057 1.65119 1.65173 1.65213 1.65232 1.65216 1.65144 1.64983 1.64681 1.64152 1.63271 1.61843 1.59599 1.56186 1.51212 1.44345 1.35486 1.24908 1.13283 1.01508 0.904283 0.806317 0.723836 0.656866 0.603876 0.562671 0.531002 0.506835 0.488479 0.474569 0.464043 0.456074 0.450038 0.445454 0.441965 0.439296 0.437243 0.435651 0.434406 0.433419 0.432628 0.431983 0.431449 0.430998 0.430611 0.430274 0.429976 0.42971 0.42947 0.429252 0.429055 0.428875 0.428713 0.428568 0.428438 0.428325 0.428228 0.428147 0.428082 0.428031 0.427996 0.427974 0.427965 0.428006 0.428015 0.428035 0.428069 0.428117 0.42818 0.428259 0.428354 0.428465 0.428594 0.428738 0.428901 0.429082 0.429284 0.429508 0.429759 0.43004 0.430362 0.430731 0.431164 0.431677 0.432297 0.433058 0.434006 0.435202 0.436729 0.438696 0.441252 0.444587 0.448963 0.454719 0.46231 0.472327 0.485553 0.502994 0.525947 0.556026 0.595184 0.64562 0.709549 0.788669 0.883334 0.991499 1.10801 1.22487 1.33313 1.42547 1.49828 1.55183 1.58906 1.6138 1.62969 1.6396 1.64561 1.6491 1.65102 1.65193 1.65222 1.65211 1.65177 1.65126 1.65067 1.65001 1.64932 1.6486 1.64788 1.64715 1.64642 1.64569 1.64497 1.64425 1.64355 1.64286 1.64218 1.6415 1.64085 1.64021 1.6396 1.63899 1.63841 1.63784 1.63731 1.63678 1.63629 1.63582 1.63538 1.63496 1.63457 1.63421 1.63388 1.63357 1.6333 1.63306 1.63285 1.63267 1.63253 1.63241 1.63234 1.63229 1.63228 1.63229 1.63235 1.63243 1.63256 1.63271 1.63289 1.63311 1.63336 1.63363 1.63395 1.63428 1.63465 1.63504 1.63547 1.63592 1.63639 1.63689 1.63741 1.63796 1.63853 1.63911 1.63972 1.64034 1.64098 1.64163 1.64231 1.64299 1.64369 1.64439 1.64511 1.64582 1.64656 1.64728 1.64801 1.64873 1.64945 1.65014 1.65079 1.65138 1.65189 1.65222 1.65232 1.65202 1.6511 1.64916 1.64563 1.63957 1.62958 1.61356 1.58864 1.55116 1.4973 1.42414 1.33149 1.22301 1.10607 0.989643 0.88168 0.787282 0.708443 0.644777 0.594569 0.555601 0.525676 0.502844 0.485499 0.472348 0.462388 0.454842 0.449121 0.444772 0.441457 0.438918 0.436962 0.435443 0.434252 0.433307 0.432547 0.431925 0.431409 0.430971 0.430596 0.430267 0.429976 0.429714 0.429478 0.429264 0.429069 0.428892 0.428731 0.428586 0.428458 0.428345 0.428248 0.428167 0.428101 0.428051 0.428015 0.427993 0.427984 0.428027 0.428035 0.428056 0.42809 0.428138 0.428201 0.428279 0.428374 0.428484 0.428611 0.428754 0.428915 0.429093 0.429292 0.429512 0.429757 0.430033 0.430345 0.430704 0.431123 0.431617 0.432214 0.432943 0.43385 0.43499 0.436444 0.438312 0.440735 0.443892 0.448029 0.453465 0.460625 0.470066 0.48252 0.498933 0.520525 0.548823 0.58569 0.633259 0.693748 0.769006 0.859776 0.964667 1.07933 1.19644 1.30715 1.40359 1.48119 1.53931 1.58035 1.60797 1.62591 1.63722 1.64415 1.64825 1.65056 1.65173 1.65218 1.65219 1.65192 1.65146 1.6509 1.65027 1.6496 1.6489 1.64819 1.64747 1.64675 1.64603 1.64532 1.64461 1.64391 1.64322 1.64255 1.64189 1.64124 1.64061 1.64 1.6394 1.63882 1.63826 1.63773 1.63721 1.63673 1.63626 1.63583 1.63541 1.63503 1.63467 1.63434 1.63404 1.63377 1.63353 1.63333 1.63315 1.63301 1.63289 1.63282 1.63277 1.63276 1.63277 1.63283 1.63291 1.63303 1.63318 1.63337 1.63358 1.63383 1.6341 1.63441 1.63474 1.6351 1.63549 1.63591 1.63635 1.63683 1.63732 1.63784 1.63837 1.63894 1.63951 1.64012 1.64073 1.64137 1.64201 1.64268 1.64335 1.64404 1.64474 1.64545 1.64616 1.64688 1.64759 1.64832 1.64902 1.64973 1.65039 1.65103 1.65158 1.65203 1.6523 1.65229 1.65182 1.65063 1.6483 1.64416 1.63716 1.62577 1.60769 1.57987 1.53858 1.48013 1.40219 1.30546 1.19456 1.07742 0.962867 0.858196 0.767697 0.692715 0.632479 0.585128 0.54844 0.520286 0.498808 0.482485 0.470101 0.460715 0.453597 0.448194 0.444082 0.440944 0.438536 0.436679 0.435233 0.434097 0.433192 0.432463 0.431865 0.431367 0.430943 0.430578 0.430257 0.429972 0.429716 0.429484 0.429273 0.42908 0.428904 0.428745 0.428601 0.428473 0.428361 0.428264 0.428183 0.428117 0.428066 0.42803 0.428008 0.427997 0.428041 0.42805 0.428071 0.428105 0.428153 0.428216 0.428295 0.428389 0.428499 0.428624 0.428766 0.428925 0.429101 0.429296 0.429513 0.429753 0.430022 0.430327 0.430675 0.43108 0.431557 0.43213 0.432828 0.433693 0.434778 0.436157 0.437927 0.440216 0.443196 0.447093 0.452207 0.458936 0.467798 0.479478 0.49486 0.515086 0.541592 0.576145 0.620797 0.677749 0.748965 0.835529 0.936682 1.04892 1.16568 1.27842 1.37885 1.46147 1.52461 1.56995 1.60093 1.62129 1.63427 1.64232 1.64716 1.64995 1.65143 1.6521 1.65223 1.65205 1.65166 1.65114 1.65054 1.64989 1.6492 1.64851 1.6478 1.64709 1.64638 1.64568 1.64497 1.64429 1.64361 1.64294 1.64228 1.64165 1.64102 1.64042 1.63982 1.63926 1.6387 1.63818 1.63766 1.63718 1.63672 1.63629 1.63588 1.6355 1.63514 1.63482 1.63452 1.63426 1.63402 1.63382 1.63364 1.6335 1.63339 1.63331 1.63327 1.63326 1.63327 1.63333 1.63341 1.63353 1.63367 1.63386 1.63407 1.63431 1.63458 1.63489 1.63521 1.63558 1.63596 1.63638 1.63681 1.63728 1.63776 1.63828 1.63881 1.63937 1.63994 1.64053 1.64114 1.64177 1.64241 1.64307 1.64373 1.64442 1.6451 1.6458 1.64651 1.64722 1.64792 1.64863 1.64933 1.65001 1.65066 1.65126 1.65177 1.65216 1.65234 1.65219 1.65152 1.65002 1.6472 1.64231 1.63419 1.62111 1.6006 1.56941 1.52379 1.46032 1.37738 1.27667 1.16379 1.04704 0.934946 0.834028 0.747736 0.67679 0.62008 0.575634 0.54125 0.514879 0.49476 0.479463 0.467848 0.459038 0.452349 0.447265 0.443391 0.44043 0.438154 0.436395 0.435022 0.433941 0.433078 0.43238 0.431804 0.431324 0.430914 0.430559 0.430246 0.429967 0.429715 0.429487 0.429278 0.429088 0.428914 0.428755 0.428612 0.428485 0.428373 0.428276 0.428194 0.428128 0.428077 0.42804 0.428017 0.428007 0.42805 0.428059 0.42808 0.428115 0.428163 0.428227 0.428305 0.428399 0.428508 0.428633 0.428774 0.428931 0.429105 0.429298 0.429511 0.429747 0.43001 0.430306 0.430644 0.431036 0.431495 0.432045 0.432712 0.433536 0.434566 0.435872 0.437543 0.439701 0.442502 0.446162 0.450956 0.457255 0.465542 0.476452 0.490807 0.509673 0.534391 0.566628 0.608342 0.661693 0.728723 0.810808 0.907772 1.01696 1.13268 1.24688 1.35106 1.4388 1.50736 1.55756 1.59242 1.61564 1.63062 1.64003 1.64577 1.64915 1.65102 1.65193 1.65224 1.65216 1.65184 1.65138 1.65081 1.65019 1.64952 1.64884 1.64814 1.64745 1.64674 1.64605 1.64536 1.64468 1.64401 1.64335 1.6427 1.64207 1.64145 1.64085 1.64026 1.6397 1.63916 1.63864 1.63813 1.63766 1.6372 1.63677 1.63636 1.63599 1.63564 1.63532 1.63502 1.63476 1.63453 1.63433 1.63415 1.63402 1.6339 1.63383 1.63378 1.63377 1.63379 1.63384 1.63392 1.63404 1.63419 1.63437 1.63457 1.63481 1.63508 1.63538 1.63571 1.63606 1.63644 1.63686 1.63729 1.63775 1.63823 1.63874 1.63926 1.63981 1.64037 1.64096 1.64156 1.64219 1.64282 1.64347 1.64413 1.6448 1.64548 1.64618 1.64687 1.64757 1.64827 1.64896 1.64964 1.65031 1.65093 1.65149 1.65196 1.65227 1.65234 1.65202 1.65109 1.64921 1.64579 1.64 1.63052 1.61542 1.59203 1.55695 1.50646 1.43757 1.3495 1.24509 1.13079 1.01512 0.906107 0.80939 0.727577 0.660808 0.607688 0.566168 0.534089 0.509498 0.490732 0.476455 0.465607 0.457368 0.451106 0.446341 0.442704 0.439919 0.437774 0.436112 0.434812 0.433785 0.432963 0.432295 0.431743 0.43128 0.430883 0.430538 0.430232 0.429959 0.429712 0.429487 0.429281 0.429092 0.428919 0.428762 0.42862 0.428493 0.42838 0.428283 0.428201 0.428135 0.428083 0.428046 0.428022 0.428012 0.428053 0.428063 0.428085 0.428119 0.428168 0.428232 0.428311 0.428405 0.428514 