# vtk DataFile Version 3.0
Immiscible displacement
ASCII
DATASET RECTILINEAR_GRID
DIMENSIONS 200 200 1
X_COORDINATES 200 double
1 2 3 4 5 6 7 8 9 10 11 12 13 14 15 16 17 18 19 20 21 22 23 24 25 26 27 28 29 30 31 32 33 34 35 36 37 38 39 40 41 42 43 44 45 46 47 48 49 50 51 52 53 54 55 56 57 58 59 60 61 62 63 64 65 66 67 68 69 70 71 72 73 74 75 76 77 78 79 80 81 82 83 84 85 86 87 88 89 90 91 92 93 94 95 96 97 98 99 100 101 102 103 104 105 106 107 108 109 110 111 112 113 114 115 116 117 118 119 120 121 122 123 124 125 126 127 128 129 130 131 132 133 134 135 136 137 138 139 140 141 142 143 144 145 146 147 148 149 150 151 152 153 154 155 156 157 158 159 160 161 162 163 164 165 166 167 168 169 170 171 172 173 174 175 176 177 178 179 180 181 182 183 184 185 186 187 188 189 190 191 192 193 194 195 196 197 198 199 200 
Y_COORDINATES 200 double
1 2 3 4 5 6 7 8 9 10 11 12 13 14 15 16 17 18 19 20 21 22 23 24 25 26 27 28 29 30 31 32 33 34 35 36 37 38 39 40 41 42 43 44 45 46 47 48 49 50 51 52 53 54 55 56 57 58 59 60 61 62 63 64 65 66 67 68 69 70 71 72 73 74 75 76 77 78 79 80 81 82 83 84 85 86 87 88 89 90 91 92 93 94 95 96 97 98 99 100 101 102 103 104 105 106 107 108 109 110 111 112 113 114 115 116 117 118 119 120 121 122 123 124 125 126 127 128 129 130 131 132 133 134 135 136 137 138 139 140 141 142 143 144 145 146 147 148 149 150 151 152 153 154 155 156 157 158 159 160 161 162 163 164 165 166 167 168 169 170 171 172 173 174 175 176 177 178 179 180 181 182 183 184 185 186 187 188 189 190 191 192 193 194 195 196 197 198 199 200 
Z_COORDINATES 1 double
0
POINT_DATA 40000
SCALARS rho double 1
LOOKUP_TABLE default
0.429585 0.429616 0.429656 0.429697 0.429732 0.429761 0.429785 0.429804 0.429819 0.429835 0.429851 0.429874 0.429905 0.429949 0.430012 0.430102 0.430227 0.4304 0.430634 0.430953 0.431382 0.431959 0.43273 0.433761 0.435136 0.43697 0.439414 0.442673 0.447015 0.452805 0.460519 0.470797 0.484477 0.502661 0.526764 0.558572 0.60024 0.654202 0.722841 0.807858 0.909221 1.02399 1.14564 1.26486 1.37206 1.46042 1.52765 1.57544 1.60764 1.62852 1.64169 1.64984 1.65482 1.65781 1.65959 1.66062 1.66119 1.66148 1.6616 1.66162 1.66157 1.66148 1.66137 1.66124 1.66111 1.66097 1.66082 1.66068 1.66053 1.66039 1.66024 1.6601 1.65995 1.65981 1.65967 1.65954 1.65941 1.65928 1.65915 1.65903 1.65891 1.6588 1.65869 1.65859 1.65849 1.6584 1.65831 1.65823 1.65815 1.65808 1.65802 1.65796 1.65791 1.65787 1.65782 1.6578 1.65777 1.65775 1.65774 1.65774 1.65774 1.65776 1.65777 1.6578 1.65783 1.65787 1.65791 1.65796 1.65802 1.65809 1.65816 1.65824 1.65832 1.65841 1.6585 1.6586 1.6587 1.65881 1.65893 1.65905 1.65917 1.65929 1.65942 1.65956 1.65969 1.65983 1.65997 1.66012 1.66026 1.66041 1.66056 1.66071 1.66085 1.661 1.66114 1.66128 1.66141 1.66152 1.66161 1.66166 1.66164 1.66152 1.66123 1.66066 1.65962 1.65784 1.65483 1.64983 1.64163 1.62839 1.6074 1.57505 1.52706 1.45959 1.37098 1.2636 1.14429 1.02268 0.908033 0.806852 0.722035 0.653583 0.599784 0.558248 0.526545 0.502523 0.484399 0.470763 0.460516 0.452822 0.447045 0.442708 0.43945 0.437003 0.435162 0.433778 0.432736 0.431952 0.431361 0.430917 0.430583 0.430332 0.430144 0.430005 0.429901 0.429824 0.429768 0.429726 0.429695 0.429671 0.429652 0.429634 0.429615 0.429595 0.42957 0.429541 0.429506 0.429468 0.42943 0.429401 0.429629 0.429652 0.429686 0.429721 0.429752 0.429779 0.4298 0.429818 0.429833 0.429848 0.429864 0.429886 0.429916 0.42996 0.430022 0.430112 0.430235 0.430407 0.43064 0.430957 0.431384 0.431958 0.432724 0.43375 0.435118 0.436943 0.439374 0.442616 0.446936 0.452695 0.460366 0.470588 0.48419 0.502271 0.526233 0.557858 0.599288 0.652952 0.721234 0.805861 0.906848 1.02134 1.14288 1.26224 1.36977 1.45861 1.52631 1.57451 1.60703 1.62813 1.64144 1.64969 1.65472 1.65776 1.65955 1.6606 1.66118 1.66148 1.6616 1.66162 1.66157 1.66149 1.66138 1.66126 1.66112 1.66098 1.66084 1.6607 1.66055 1.66041 1.66026 1.66012 1.65998 1.65984 1.6597 1.65957 1.65944 1.65932 1.65919 1.65907 1.65895 1.65885 1.65873 1.65864 1.65853 1.65845 1.65835 1.65828 1.6582 1.65813 1.65806 1.65801 1.65796 1.65792 1.65788 1.65785 1.65782 1.65781 1.65779 1.65779 1.65779 1.65781 1.65782 1.65785 1.65788 1.65792 1.65796 1.65802 1.65807 1.65814 1.6582 1.65828 1.65836 1.65845 1.65854 1.65864 1.65874 1.65885 1.65896 1.65908 1.6592 1.65933 1.65945 1.65959 1.65972 1.65986 1.66 1.66014 1.66028 1.66043 1.66057 1.66073 1.66087 1.66102 1.66115 1.66129 1.66142 1.66153 1.66161 1.66166 1.66164 1.66152 1.66122 1.66064 1.65959 1.65779 1.65473 1.64968 1.64138 1.628 1.60679 1.57412 1.52572 1.45778 1.3687 1.26098 1.14155 1.02003 0.905671 0.804866 0.720437 0.65234 0.598837 0.557538 0.526017 0.502134 0.484113 0.470554 0.460362 0.452711 0.446964 0.442651 0.439409 0.436974 0.435142 0.433766 0.432728 0.431949 0.431361 0.43092 0.430587 0.430338 0.430151 0.430013 0.42991 0.429834 0.429778 0.429738 0.429707 0.429684 0.429664 0.429648 0.42963 0.42961 0.429587 0.429561 0.429529 0.429496 0.429465 0.429443 0.429698 0.429713 0.429738 0.429765 0.42979 0.429812 0.42983 0.429845 0.429858 0.429871 0.429886 0.429906 0.429935 0.429978 0.430039 0.430126 0.430248 0.430417 0.430647 0.430961 0.431382 0.43195 0.432709 0.433724 0.435078 0.436884 0.439291 0.4425 0.446774 0.452472 0.460061 0.470171 0.483624 0.501502 0.525196 0.556466 0.597438 0.650527 0.718124 0.801996 0.902254 1.01619 1.13752 1.25711 1.36528 1.455 1.52363 1.57264 1.60578 1.62733 1.64094 1.64938 1.65453 1.65764 1.65949 1.66056 1.66116 1.66147 1.6616 1.66163 1.66158 1.6615 1.66139 1.66128 1.66114 1.66101 1.66086 1.66073 1.66058 1.66044 1.6603 1.66016 1.66002 1.65989 1.65975 1.65962 1.65949 1.65937 1.65924 1.65913 1.65901 1.65891 1.6588 1.6587 1.6586 1.65852 1.65843 1.65835 1.65827 1.65821 1.65814 1.65809 1.65804 1.658 1.65796 1.65793 1.6579 1.65789 1.65788 1.65788 1.65788 1.65789 1.6579 1.65793 1.65796 1.658 1.65804 1.65809 1.65815 1.65821 1.65828 1.65836 1.65843 1.65852 1.65861 1.65871 1.65881 1.65892 1.65902 1.65914 1.65926 1.65938 1.65951 1.65964 1.65977 1.65991 1.66004 1.66018 1.66032 1.66047 1.66061 1.66075 1.66089 1.66104 1.66117 1.66131 1.66143 1.66154 1.66162 1.66167 1.66164 1.66151 1.6612 1.6606 1.65952 1.65767 1.65454 1.64936 1.64088 1.6272 1.60554 1.57225 1.52304 1.45417 1.36422 1.25586 1.1362 1.01491 0.901098 0.80102 0.717342 0.649927 0.596996 0.556152 0.524983 0.501367 0.483547 0.470137 0.460056 0.452487 0.4468 0.442532 0.439323 0.436913 0.4351 0.433737 0.43271 0.431939 0.431357 0.430921 0.430592 0.430347 0.430162 0.430026 0.429925 0.429851 0.429796 0.429757 0.429727 0.429706 0.429688 0.429672 0.429656 0.42964 0.42962 0.429597 0.429572 0.429546 0.429522 0.429507 0.429779 0.429789 0.429805 0.429824 0.429842 0.429858 0.429871 0.429883 0.429892 0.429902 0.429915 0.429934 0.42996 0.430001 0.430059 0.430144 0.430263 0.430428 0.430654 0.430962 0.431376 0.431935 0.432681 0.433681 0.435014 0.436793 0.439163 0.442322 0.44653 0.452139 0.459608 0.469557 0.482791 0.500378 0.523683 0.554442 0.594752 0.647011 0.713617 0.796393 0.895583 1.00869 1.12968 1.24956 1.35863 1.44963 1.51961 1.56981 1.60389 1.6261 1.64016 1.6489 1.65424 1.65746 1.65938 1.6605 1.66112 1.66145 1.66159 1.66163 1.66159 1.66152 1.66141 1.6613 1.66117 1.66104 1.6609 1.66076 1.66062 1.66048 1.66034 1.66021 1.66007 1.65994 1.65981 1.65968 1.65955 1.65943 1.65931 1.6592 1.65909 1.65898 1.65888 1.65878 1.65868 1.6586 1.65851 1.65844 1.65836 1.6583 1.65823 1.65818 1.65813 1.65809 1.65805 1.65803 1.658 1.65799 1.65797 1.65798 1.65797 1.65799 1.658 1.65803 1.65805 1.6581 1.65813 1.65819 1.65824 1.6583 1.65837 1.65844 1.65852 1.65861 1.65869 1.65879 1.65888 1.65899 1.6591 1.65921 1.65932 1.65945 1.65957 1.6597 1.65982 1.65996 1.66009 1.66023 1.66036 1.66051 1.66064 1.66079 1.66093 1.66107 1.6612 1.66133 1.66145 1.66156 1.66163 1.66167 1.66164 1.66149 1.66116 1.66054 1.65941 1.65749 1.65424 1.64888 1.6401 1.62596 1.60364 1.56941 1.51901 1.4488 1.35757 1.24833 1.12838 1.00743 0.894454 0.795442 0.712857 0.646429 0.594323 0.554138 0.523477 0.500247 0.482717 0.469523 0.459603 0.452153 0.446555 0.442352 0.439192 0.436819 0.435033 0.433691 0.43268 0.43192 0.431348 0.430919 0.430596 0.430355 0.430175 0.430042 0.429943 0.429872 0.429819 0.429782 0.429754 0.429735 0.429719 0.429706 0.429693 0.42968 0.429664 0.429647 0.429628 0.42961 0.429594 0.429585 0.429868 0.429873 0.429882 0.429893 0.429904 0.429914 0.429921 0.429928 0.429933 0.42994 0.42995 0.429965 0.429989 0.430027 0.430082 0.430164 0.430278 0.430438 0.430658 0.430958 0.431363 0.43191 0.432641 0.43362 0.434926 0.436669 0.438991 0.442087 0.446209 0.451703 0.459017 0.468758 0.481714 0.498927 0.521735 0.551838 0.591302 0.642498 0.707829 0.789187 0.88698 0.998981 1.11947 1.23966 1.34984 1.44247 1.5142 1.56598 1.6013 1.62442 1.63909 1.64823 1.65382 1.65721 1.65922 1.66041 1.66107 1.66143 1.66158 1.66163 1.6616 1.66153 1.66143 1.66132 1.6612 1.66107 1.66093 1.6608 1.66066 1.66053 1.66039 1.66026 1.66012 1.66 1.65987 1.65975 1.65962 1.6595 1.65938 1.65928 1.65916 1.65906 1.65896 1.65887 1.65877 1.65869 1.6586 1.65853 1.65846 1.6584 1.65833 1.65828 1.65823 1.6582 1.65816 1.65813 1.65811 1.65809 1.65808 1.65808 1.65808 1.65809 1.65811 1.65813 1.65816 1.6582 1.65823 1.65829 1.65834 1.6584 1.65846 1.65854 1.65861 1.6587 1.65878 1.65887 1.65897 1.65907 1.65917 1.65929 1.6594 1.65952 1.65963 1.65976 1.65988 1.66002 1.66014 1.66028 1.66041 1.66055 1.66069 1.66083 1.66096 1.6611 1.66123 1.66136 1.66147 1.66157 1.66164 1.66167 1.66163 1.66147 1.66111 1.66045 1.65926 1.65723 1.65383 1.64821 1.63903 1.62428 1.60105 1.56558 1.5136 1.44163 1.34879 1.23844 1.11819 0.997754 0.885884 0.788268 0.707096 0.641938 0.59089 0.551546 0.521537 0.498802 0.481642 0.468726 0.459012 0.451716 0.446232 0.442114 0.439018 0.436692 0.434942 0.433626 0.432636 0.431892 0.431332 0.430912 0.430597 0.430363 0.430187 0.430059 0.429963 0.429895 0.429846 0.429811 0.429786 0.429769 0.429756 0.429746 0.429737 0.429728 0.429718 0.429707 0.429695 0.429684 0.429674 0.429669 0.42996 0.429962 0.429965 0.429969 0.429973 0.429976 0.429977 0.429979 0.42998 0.429983 0.429988 0.43 0.430021 0.430055 0.430106 0.430183 0.430292 0.430447 0.430659 0.43095 0.431343 0.431875 0.432587 0.433541 0.434814 0.436514 0.438778 0.441796 0.445816 0.451171 0.458301 0.467792 0.480414 0.49718 0.519393 0.548713 0.587164 0.637084 0.70088 0.780517 0.876592 0.987195 1.10698 1.22746 1.33891 1.43348 1.50737 1.56111 1.59799 1.62224 1.6377 1.64735 1.65328 1.65688 1.65902 1.66029 1.661 1.66139 1.66157 1.66163 1.66161 1.66155 1.66145 1.66135 1.66122 1.6611 1.66097 1.66084 1.6607 1.66058 1.66044 1.66031 1.66018 1.66006 1.65993 1.65981 1.65969 1.65958 1.65946 1.65935 1.65924 1.65915 1.65904 1.65895 1.65886 1.65878 1.6587 1.65863 1.65856 1.6585 1.65844 1.65839 1.65834 1.6583 1.65826 1.65824 1.65821 1.6582 1.65819 1.65819 1.65819 1.6582 1.65821 1.65824 1.65826 1.6583 1.65834 1.65839 1.65844 1.6585 1.65856 1.65863 1.6587 1.65879 1.65887 1.65896 1.65905 1.65915 1.65925 1.65936 1.65947 1.65959 1.6597 1.65983 1.65995 1.66008 1.6602 1.66033 1.66046 1.6606 1.66073 1.66087 1.661 1.66113 1.66126 1.66138 1.66149 1.66159 1.66165 1.66167 1.66161 1.66143 1.66104 1.66032 1.65905 1.6569 1.65328 1.64733 1.63763 1.6221 1.59774 1.5607 1.50676 1.43264 1.33786 1.22626 1.10574 0.986003 0.875534 0.779634 0.700178 0.636549 0.586771 0.548436 0.519206 0.497062 0.480347 0.467762 0.458297 0.451184 0.445838 0.441822 0.438802 0.436534 0.434826 0.433544 0.432578 0.431854 0.431308 0.4309 0.430594 0.430367 0.430198 0.430075 0.429984 0.42992 0.429874 0.429843 0.429821 0.429807 0.429798 0.429792 0.429787 0.429783 0.429778 0.429773 0.429767 0.429762 0.429758 0.429756 0.430053 0.430051 0.43005 0.430047 0.430045 0.430042 0.430037 0.430033 0.430029 0.430028 0.430029 0.430037 0.430053 0.430083 0.43013 0.430202 0.430305 0.430452 0.430655 0.430936 0.431316 0.43183 0.43252 0.433445 0.43468 0.436329 0.438527 0.441457 0.445358 0.450555 0.457472 0.466678 0.478917 0.495171 0.516704 0.545128 0.582416 0.630871 0.692893 0.770525 0.864568 0.973469 1.09233 1.213 1.32583 1.42262 1.49902 1.5551 1.59388 1.61953 1.63596 1.64625 1.65259 1.65645 1.65876 1.66013 1.66091 1.66134 1.66155 1.66163 1.66162 1.66156 1.66148 1.66137 1.66125 1.66114 1.66101 1.66088 1.66075 1.66062 1.66049 1.66037 1.66024 1.66012 1.65999 1.65988 1.65976 1.65965 1.65953 1.65943 1.65932 1.65923 1.65913 1.65904 1.65895 1.65887 1.65879 1.65872 1.65865 1.6586 1.65854 1.65849 1.65844 1.65841 1.65837 1.65835 1.65832 1.65831 1.6583 1.6583 1.6583 1.65831 1.65832 1.65835 1.65837 1.65841 1.65844 1.65849 1.65854 1.6586 1.65866 1.65873 1.6588 1.65888 1.65896 1.65905 1.65914 1.65924 1.65933 1.65944 1.65954 1.65966 1.65977 1.65989 1.66001 1.66014 1.66026 1.66039 1.66051 1.66065 1.66077 1.66091 1.66103 1.66117 1.66129 1.66141 1.66151 1.6616 1.66166 1.66167 1.66159 1.66138 1.66095 1.66017 1.65879 1.65647 1.65259 1.64622 1.63588 1.61938 1.59362 1.55468 1.4984 1.42177 1.32479 1.21182 1.09111 0.972317 0.863553 0.769682 0.692226 0.630364 0.582046 0.544867 0.516528 0.495061 0.478855 0.466651 0.457469 0.450568 0.445379 0.441481 0.438549 0.436347 0.434689 0.433444 0.432508 0.431805 0.431277 0.430883 0.430588 0.430369 0.430207 0.43009 0.430004 0.429945 0.429903 0.429875 0.429858 0.429848 0.429842 0.42984 0.42984 0.42984 0.429841 0.429842 0.429842 0.429843 0.429843 0.429844 0.430144 0.43014 0.430134 0.430126 0.430118 0.430109 0.430099 0.43009 0.430081 0.430074 0.430071 0.430075 0.430086 0.430111 0.430153 0.430219 0.430315 0.430454 0.430648 0.430916 0.431281 0.431776 0.432441 0.433333 0.434526 0.436119 0.438243 0.441074 0.444843 0.449864 0.456544 0.465434 0.477248 0.492935 0.513713 0.541143 0.577141 0.623961 0.683995 0.759359 0.851066 0.957947 1.07561 1.19633 1.31056 1.40978 1.48906 1.54787 1.5889 1.61622 1.63382 1.64489 1.65173 1.65592 1.65843 1.65993 1.66079 1.66127 1.66151 1.66161 1.66162 1.66158 1.66149 1.6614 1.66128 1.66117 1.66104 1.66092 1.66079 1.66067 1.66054 1.66042 1.66029 1.66018 1.66005 1.65994 1.65983 1.65972 1.65961 1.65951 1.6594 1.65931 1.65921 1.65913 1.65904 1.65896 1.65888 1.65882 1.65875 1.65869 1.65863 1.65859 1.65854 1.65851 1.65847 1.65845 1.65842 1.65841 1.6584 1.6584 1.6584 1.65841 1.65843 1.65845 1.65847 1.65851 1.65854 1.65859 1.65864 1.6587 1.65875 1.65882 1.65889 1.65897 1.65905 1.65913 1.65922 1.65932 1.65941 1.65952 1.65962 1.65973 1.65984 1.65996 1.66007 1.6602 1.66031 1.66044 1.66056 1.66069 1.66082 1.66095 1.66107 1.6612 1.66132 1.66143 1.66153 1.66161 1.66166 1.66165 1.66155 1.66131 1.66083 1.65997 1.65846 1.65594 1.65173 1.64486 1.63373 1.61606 1.58862 1.54743 1.48843 1.40893 1.30952 1.19517 1.07442 0.956838 0.850096 0.758558 0.683365 0.623484 0.576794 0.5409 0.513551 0.492835 0.477193 0.465411 0.456544 0.449877 0.444864 0.441097 0.438263 0.436134 0.434532 0.43333 0.432425 0.431747 0.431239 0.430859 0.430576 0.430368 0.430214 0.430103 0.430023 0.429969 0.429932 0.429909 0.429895 0.429889 0.429888 0.42989 0.429894 0.4299 0.429905 0.429912 0.429917 0.429923 0.429928 0.429931 0.430232 0.430226 0.430216 0.430204 0.43019 0.430176 0.430161 0.430146 0.430132 0.430121 0.430113 0.430112 0.430119 0.430139 0.430175 0.430234 0.430323 0.430453 0.430636 0.430891 0.43124 0.431713 0.432351 0.433208 0.434354 0.435887 0.43793 0.440654 0.44428 0.44911 0.455534 0.46408 0.475435 0.490508 0.510469 0.536821 0.571418 0.616457 0.674314 0.747167 0.836244 0.940779 1.05693 1.17748 1.29307 1.39489 1.47736 1.53928 1.58292 1.61223 1.63122 1.64323 1.65069 1.65526 1.65803 1.65968 1.66064 1.66119 1.66147 1.66159 1.66162 1.66159 1.66151 1.66142 1.66131 1.6612 1.66108 1.66096 1.66084 1.66072 1.66059 1.66047 1.66035 1.66024 1.66012 1.66001 1.65989 1.65979 1.65968 1.65958 1.65948 1.65939 1.65929 1.65921 1.65912 1.65905 1.65897 1.65891 1.65884 1.65879 1.65873 1.65869 1.65864 1.65861 1.65857 1.65855 1.65853 1.65852 1.6585 1.6585 1.6585 1.65852 1.65853 1.65855 1.65857 1.65861 1.65864 1.65869 1.65873 1.65879 1.65884 1.65891 1.65898 1.65906 1.65913 1.65922 1.6593 1.6594 1.65949 1.65959 1.65969 1.6598 1.6599 1.66002 1.66013 1.66025 1.66037 1.66049 1.66061 1.66074 1.66086 1.66099 1.66111 1.66123 1.66135 1.66146 1.66155 1.66162 1.66166 1.66163 1.66151 1.66123 1.66068 1.65972 1.65806 1.65528 1.65068 1.64319 1.63113 1.61206 1.58263 1.53883 1.47671 1.39403 1.29204 1.17634 1.05578 0.939715 0.835322 0.746412 0.673723 0.616012 0.571095 0.536597 0.510321 0.490418 0.475387 0.464062 0.455536 0.449124 0.444301 0.440675 0.437948 0.435899 0.434358 0.433202 0.432332 0.431681 0.431194 0.430831 0.430561 0.430363 0.430218 0.430114 0.430041 0.429992 0.42996 0.429941 0.429932 0.42993 0.429933 0.42994 0.429949 0.429959 0.42997 0.429981 0.429991 0.430001 0.430009 0.430014 0.430315 0.430307 0.430295 0.430279 0.43026 0.430241 0.430221 0.430201 0.430183 0.430167 0.430154 0.430148 0.43015 0.430164 0.430194 0.430247 0.430328 0.430449 0.430621 0.430862 0.431192 0.431643 0.432252 0.433071 0.434168 0.435636 0.437593 0.440203 0.443677 0.448303 0.454455 0.462636 0.473503 0.487924 0.507017 0.532223 0.565327 0.608463 0.663977 0.734101 0.820268 0.922122 1.03641 1.15651 1.27333 1.37783 1.46376 1.52918 1.57583 1.60745 1.62809 1.64122 1.64941 1.65446 1.65753 1.65938 1.66046 1.66108 1.66141 1.66157 1.66161 1.66159 1.66153 1.66145 1.66134 1.66124 1.66112 1.661 1.66088 1.66076 1.66064 1.66053 1.6604 1.66029 1.66018 1.66007 1.65996 1.65985 1.65975 1.65965 1.65955 1.65946 1.65937 1.65929 1.65921 1.65914 1.65906 1.659 1.65893 1.65888 1.65882 1.65878 1.65873 1.6587 1.65867 1.65865 1.65862 1.65861 1.6586 1.6586 1.6586 1.65861 1.65862 1.65865 1.65867 1.6587 1.65874 1.65878 1.65882 1.65888 1.65893 1.659 1.65906 1.65914 1.65921 1.6593 1.65938 1.65947 1.65956 1.65966 1.65976 1.65987 1.65997 1.66008 1.66019 1.66031 1.66042 1.66055 1.66066 1.66079 1.6609 1.66103 1.66115 1.66127 1.66138 1.66148 1.66157 1.66163 1.66165 1.66161 1.66145 1.66112 1.6605 1.65941 1.65756 1.65448 1.64941 1.64118 1.62799 1.60727 1.57552 1.52871 1.46309 1.37696 1.2723 1.15539 1.0353 0.921106 0.819396 0.733392 0.663426 0.608051 0.56503 0.532018 0.506883 0.487844 0.473463 0.462623 0.45446 0.448319 0.443697 0.440223 0.43761 0.435646 0.43417 0.433062 0.43223 0.431608 0.431143 0.430797 0.430541 0.430355 0.430219 0.430123 0.430057 0.430013 0.429986 0.429973 0.429968 0.429971 0.429978 0.42999 0.430003 0.430017 0.430033 0.430048 0.430063 0.430076 0.430087 0.430094 0.430393 0.430384 0.430369 0.43035 0.430327 0.430304 0.430279 0.430255 0.430232 0.430211 0.430194 0.430183 0.430179 0.430188 0.430212 0.430257 0.43033 0.430441 0.430601 0.430827 0.431139 0.431567 0.432145 0.432925 0.43397 0.43537 0.437236 0.439727 0.443041 0.447454 0.453321 0.461122 0.471478 0.485216 0.503401 0.527408 0.558945 0.600079 0.653111 0.720314 0.803308 0.902146 1.01419 1.13347 1.25131 1.35849 1.44811 1.51739 1.56746 1.60176 1.62434 1.6388 1.64787 1.65349 1.65692 1.659 1.66023 1.66094 1.66133 1.66153 1.6616 1.6616 1.66154 1.66147 1.66137 1.66127 1.66115 1.66104 1.66092 1.66081 1.66069 1.66058 1.66046 1.66035 1.66023 1.66013 1.66002 1.65992 1.65982 1.65972 1.65962 1.65954 1.65945 1.65937 1.65929 1.65922 1.65914 1.65908 1.65902 1.65897 1.65891 1.65887 1.65882 1.65879 1.65876 1.65874 1.65872 1.65871 1.65869 1.65869 1.65869 1.65871 1.65872 1.65874 1.65876 1.65879 1.65883 1.65887 1.65891 1.65897 1.65902 1.65908 1.65915 1.65922 1.65929 1.65938 1.65945 1.65955 1.65963 1.65973 1.65983 1.65993 1.66003 1.66014 1.66025 1.66037 1.66048 1.6606 1.66071 1.66083 1.66095 1.66107 1.66118 1.6613 1.6614 1.6615 1.66158 1.66163 1.66163 1.66157 1.66137 1.66098 1.66027 1.65904 1.65695 1.65351 1.64786 1.63875 1.62424 1.60157 1.56714 1.5169 1.44742 1.35761 1.25028 1.13238 1.01312 0.90118 0.802487 0.719652 0.6526 0.599699 0.558675 0.527223 0.503283 0.485147 0.471445 0.461114 0.45333 0.447472 0.443063 0.439747 0.437252 0.435378 0.433969 0.432913 0.43212 0.431528 0.431086 0.43076 0.430518 0.430344 0.430218 0.43013 0.43007 0.430033 0.430011 0.430003 0.430003 0.43001 0.430022 0.430037 0.430054 0.430073 0.430093 0.430112 0.43013 0.430147 0.43016 0.430168 0.430466 0.430456 0.430438 0.430416 0.43039 0.430363 0.430334 0.430306 0.430278 0.430253 0.430231 0.430215 0.430207 0.43021 0.430227 0.430266 0.43033 0.430431 0.430579 0.430789 0.431082 0.431485 0.432032 0.432771 0.433763 0.435092 0.436865 0.439232 0.442382 0.446575 0.452147 0.459554 0.469383 0.482417 0.499665 0.522432 0.552349 0.591402 0.64184 0.705956 0.785538 0.881031 0.990421 1.10847 1.227 1.33676 1.43022 1.50372 1.55763 1.59501 1.61986 1.63589 1.64601 1.65232 1.65618 1.65854 1.65995 1.66077 1.66123 1.66148 1.66157 1.66159 1.66155 1.66149 1.6614 1.6613 1.66119 1.66108 1.66097 1.66085 1.66074 1.66063 1.66051 1.6604 1.66029 1.66019 1.66008 1.65998 1.65988 1.65979 1.65969 1.65961 1.65952 1.65944 1.65936 1.65929 1.65922 1.65916 1.6591 1.65905 1.659 1.65895 1.65891 1.65888 1.65885 1.65883 1.6588 1.6588 1.65878 1.65878 1.65878 1.6588 1.65881 1.65883 1.65885 1.65888 1.65891 1.65896 1.659 1.65905 1.6591 1.65917 1.65923 1.6593 1.65937 1.65945 1.65953 1.65962 1.6597 1.6598 1.65989 1.66 1.66009 1.6602 1.66031 1.66042 1.66053 1.66065 1.66076 1.66088 1.66099 1.66111 1.66122 1.66133 1.66143 1.66152 1.66159 1.66163 1.66161 1.66152 1.66127 1.66081 1.65998 1.65857 1.65621 1.65233 1.646 1.63584 1.61974 1.5948 1.55728 1.5032 1.42951 1.33587 1.22598 1.10741 0.989398 0.880117 0.78477 0.705342 0.64137 0.591055 0.552104 0.522268 0.499562 0.482359 0.469358 0.459552 0.45216 0.446594 0.442404 0.439252 0.43688 0.435099 0.43376 0.432757 0.432004 0.431444 0.431026 0.430719 0.430492 0.43033 0.430214 0.430134 0.430082 0.430051 0.430035 0.430031 0.430035 0.430047 0.430063 0.430082 0.430104 0.430127 0.430149 0.430172 0.430194 0.430213 0.430228 0.430237 0.430532 0.430521 0.430502 0.430477 0.430449 0.430418 0.430386 0.430353 0.430322 0.430292 0.430266 0.430245 0.430232 0.430229 0.43024 0.430271 0.430327 0.430418 0.430553 0.430748 0.431021 0.4314 0.431914 0.432611 0.433548 0.434805 0.436484 0.438724 0.441705 0.445673 0.450946 0.45795 0.467241 0.479557 0.495849 0.51735 0.545609 0.582525 0.630284 0.691177 0.767135 0.858967 0.965283 1.08162 1.20042 1.31254 1.40991 1.48793 1.54611 1.58702 1.61451 1.63239 1.64376 1.65088 1.65528 1.65798 1.6596 1.66056 1.66111 1.66141 1.66154 1.66158 1.66156 1.66151 1.66142 1.66133 1.66123 1.66112 1.66101 1.6609 1.66078 1.66068 1.66056 1.66046 1.66035 1.66025 1.66014 1.66004 1.65994 1.65985 1.65976 1.65968 1.65959 1.65952 1.65944 1.65937 1.6593 1.65924 1.65918 1.65913 1.65908 1.65904 1.65899 1.65896 1.65893 1.65891 1.65889 1.65888 1.65887 1.65887 1.65887 1.65888 1.65889 1.65891 1.65893 1.65896 1.65899 1.65904 1.65908 1.65913 1.65918 1.65924 1.6593 1.65937 1.65944 1.65952 1.6596 1.65969 1.65977 1.65986 1.65995 1.66006 1.66015 1.66026 1.66036 1.66047 1.66058 1.6607 1.66081 1.66092 1.66103 1.66115 1.66125 1.66136 1.66146 1.66154 1.6616 1.66162 1.66158 1.66145 1.66115 1.6606 1.65963 1.65801 1.6553 1.65089 1.64374 1.63233 1.61437 1.58678 1.54574 1.48739 1.40918 1.31164 1.19941 1.08059 0.964306 0.858106 0.76642 0.690611 0.629854 0.582212 0.54539 0.517206 0.495761 0.479511 0.467225 0.457954 0.450962 0.445696 0.441729 0.438744 0.436498 0.434811 0.433544 0.432595 0.431884 0.431356 0.430963 0.430674 0.430464 0.430313 0.430207 0.430137 0.430091 0.430066 0.430056 0.430057 0.430066 0.430082 0.430102 0.430125 0.43015 0.430176 0.430202 0.430228 0.430252 0.430273 0.43029 0.4303 0.430593 0.430581 0.43056 0.430533 0.430502 0.430468 0.430433 0.430397 0.430362 0.430328 0.430298 0.430273 0.430254 0.430246 0.430251 0.430275 0.430322 0.430403 0.430525 0.430705 0.430958 0.431311 0.431793 0.432448 0.43333 0.434514 0.436096 0.438208 0.441019 0.44476 0.449729 0.456327 0.465075 0.476665 0.491991 0.512213 0.538793 0.573538 0.618558 0.676124 0.748278 0.836154 0.93897 1.05307 1.17163 1.28577 1.387 1.46978 1.53266 1.57756 1.60811 1.62818 1.64104 1.64914 1.65418 1.65728 1.65916 1.6603 1.66095 1.66132 1.66149 1.66157 1.66156 1.66152 1.66145 1.66136 1.66126 1.66116 1.66105 1.66094 1.66083 1.66072 1.66061 1.66051 1.6604 1.6603 1.6602 1.6601 1.66001 1.65992 1.65983 1.65974 1.65966 1.65958 1.65951 1.65944 1.65937 1.65931 1.65925 1.6592 1.65915 1.65911 1.65907 1.65904 1.65901 1.65899 1.65897 1.65896 1.65895 1.65895 1.65895 1.65896 1.65897 1.65899 1.65901 1.65904 1.65907 1.65912 1.65916 1.65921 1.65926 1.65932 1.65938 1.65945 1.65951 1.65959 1.65967 1.65975 1.65983 1.65993 1.66002 1.66012 1.66021 1.66032 1.66042 1.66053 1.66063 1.66075 1.66085 1.66097 1.66107 1.66119 1.66129 1.66139 1.66148 1.66156 1.6616 1.6616 1.66153 1.66136 1.66099 1.66033 1.6592 1.65731 1.6542 1.64914 1.64101 1.6281 1.60795 1.5773 1.53226 1.46921 1.38624 1.28486 1.17063 1.05207 0.938041 0.835348 0.747616 0.675606 0.618168 0.573257 0.5386 0.512088 0.491918 0.476631 0.465067 0.456337 0.449749 0.444785 0.441044 0.438229 0.43611 0.434519 0.433324 0.43243 0.431761 0.431265 0.430897 0.430628 0.430433 0.430295 0.430199 0.430137 0.430098 0.43008 0.430074 0.43008 0.430094 0.430114 0.430137 0.430164 0.430192 0.430222 0.430251 0.430279 0.430306 0.430329 0.430347 0.430357 0.430646 0.430634 0.430612 0.430583 0.43055 0.430514 0.430476 0.430437 0.430398 0.430361 0.430327 0.430297 0.430274 0.430261 0.430259 0.430276 0.430315 0.430385 0.430495 0.430659 0.430893 0.431221 0.43167 0.432283 0.433109 0.43422 0.435706 0.43769 0.44033 0.443843 0.448508 0.454699 0.462904 0.473768 0.488127 0.507068 0.531963 0.564525 0.606772 0.660939 0.729143 0.812801 0.911701 1.02301 1.14072 1.25641 1.36131 1.44902 1.517 1.56638 1.60046 1.6231 1.63772 1.64701 1.65282 1.65643 1.65863 1.65996 1.66075 1.6612 1.66143 1.66154 1.66156 1.66153 1.66147 1.66139 1.66129 1.6612 1.66109 1.66099 1.66088 1.66077 1.66066 1.66056 1.66045 1.66036 1.66025 1.66016 1.66007 1.65998 1.65989 1.65981 1.65972 1.65965 1.65957 1.65951 1.65944 1.65938 1.65932 1.65928 1.65923 1.65919 1.65915 1.65912 1.65909 1.65907 1.65905 1.65904 1.65903 1.65903 1.65903 1.65904 1.65905 1.65907 1.65909 1.65912 1.65915 1.65919 1.65923 1.65928 1.65933 1.65939 1.65945 1.65951 1.65958 1.65966 1.65973 1.65982 1.6599 1.65999 1.66008 1.66017 1.66027 1.66037 1.66047 1.66058 1.66068 1.66079 1.6609 1.66101 1.66112 1.66123 1.66132 1.66142 1.6615 1.66157 1.66159 1.66158 1.66147 1.66124 1.66079 1.66 1.65866 1.65645 1.65284 1.64701 1.63768 1.623 1.60028 1.5661 1.51656 1.44841 1.36053 1.25549 1.13974 1.02204 0.910822 0.812049 0.728533 0.660467 0.606422 0.564275 0.531795 0.506962 0.488069 0.473744 0.462904 0.454715 0.448532 0.443871 0.440356 0.437711 0.43572 0.434225 0.433102 0.432263 0.431636 0.431172 0.430829 0.43058 0.4304 0.430275 0.430189 0.430135 0.430104 0.430091 0.430091 0.430101 0.430119 0.430143 0.43017 0.4302 0.430231 0.430263 0.430295 0.430326 0.430354 0.430378 0.430397 0.430408 0.430694 0.43068 0.430658 0.430628 0.430593 0.430555 0.430514 0.430472 0.430431 0.43039 0.430352 0.430319 0.430291 0.430272 0.430265 0.430275 0.430306 0.430366 0.430464 0.430613 0.430827 0.43113 0.431547 0.432118 0.432889 0.433927 0.435317 0.437173 0.439644 0.442931 0.447293 0.45308 0.460745 0.470889 0.484289 0.501957 0.525178 0.555561 0.59503 0.645758 0.709903 0.78912 0.883712 0.991651 1.10785 1.22448 1.33272 1.42538 1.49881 1.55319 1.59131 1.61696 1.63369 1.64441 1.65115 1.65536 1.65796 1.65955 1.66049 1.66105 1.66135 1.6615 1.66154 1.66154 1.66149 1.66142 1.66133 1.66124 1.66113 1.66103 1.66092 1.66082 1.66071 1.66061 1.66051 1.66041 1.66031 1.66022 1.66012 1.66004 1.65995 1.65987 1.65979 1.65972 1.65964 1.65958 1.65951 1.65945 1.65939 1.65935 1.6593 1.65926 1.65922 1.65919 1.65916 1.65914 1.65912 1.65911 1.6591 1.6591 1.6591 1.65911 1.65912 1.65914 1.65916 1.65919 1.65922 1.65926 1.6593 1.65935 1.6594 1.65946 1.65951 1.65958 1.65965 1.65972 1.65979 1.65988 1.65996 1.66005 1.66014 1.66023 1.66032 1.66043 1.66052 1.66063 1.66073 1.66084 1.66094 1.66105 1.66116 1.66126 1.66136 1.66145 1.66152 1.66157 1.66158 1.66153 1.66138 1.66108 1.66053 1.65958 1.65799 1.65539 1.65116 1.64439 1.63364 1.61684 1.59111 1.55287 1.49833 1.42474 1.33192 1.22356 1.10688 0.990726 0.882884 0.788423 0.709346 0.645331 0.594717 0.555342 0.525034 0.50187 0.484245 0.470876 0.460753 0.453102 0.447321 0.442961 0.439672 0.437195 0.435331 0.433931 0.432881 0.432096 0.431511 0.431079 0.430761 0.430531 0.430367 0.430253 0.430177 0.430131 0.430107 0.4301 0.430105 0.43012 0.430141 0.430168 0.430199 0.430232 0.430266 0.430301 0.430334 0.430367 0.430397 0.430422 0.430442 0.430454 0.430734 0.430721 0.430698 0.430667 0.43063 0.43059 0.430548 0.430504 0.430459 0.430416 0.430374 0.430337 0.430305 0.430282 0.430269 0.430273 0.430295 0.430346 0.430432 0.430565 0.43076 0.431039 0.431424 0.431953 0.43267 0.433637 0.434932 0.436662 0.438966 0.442029 0.446094 0.451483 0.458616 0.468051 0.480505 0.49692 0.518489 0.546718 0.583425 0.630706 0.690728 0.765324 0.855255 0.959263 1.07321 1.19005 1.30114 1.39863 1.47776 1.53764 1.58037 1.60953 1.62877 1.6412 1.64909 1.65404 1.65712 1.65902 1.66016 1.66085 1.66123 1.66144 1.66152 1.66153 1.6615 1.66144 1.66136 1.66127 1.66117 1.66107 1.66097 1.66087 1.66076 1.66066 1.66056 1.66047 1.66037 1.66028 1.66018 1.6601 1.66001 1.65993 1.65985 1.65978 1.6597 1.65964 1.65957 1.65952 1.65946 1.65942 1.65937 1.65933 1.65929 1.65926 1.65923 1.65921 1.65919 1.65918 1.65917 1.65917 1.65917 1.65918 1.65919 1.65921 1.65923 1.65926 1.65929 1.65933 1.65937 1.65942 1.65946 1.65952 1.65958 1.65965 1.65971 1.65978 1.65986 1.65994 1.66002 1.66011 1.66019 1.66029 1.66038 1.66048 1.66058 1.66068 1.66078 1.66089 1.66099 1.6611 1.6612 1.6613 1.66139 1.66147 1.66153 1.66157 1.66155 1.66147 1.66127 1.66089 1.6602 1.65905 1.65715 1.65406 1.64909 1.64117 1.6287 1.60939 1.58014 1.53728 1.47725 1.39795 1.30031 1.18913 1.07227 0.95838 0.85448 0.764682 0.690221 0.630324 0.583149 0.546528 0.518368 0.496851 0.480475 0.468048 0.458632 0.45151 0.446126 0.442062 0.438995 0.436686 0.434946 0.433641 0.432661 0.431931 0.431387 0.430986 0.430693 0.430482 0.430332 0.430231 0.430164 0.430126 0.430108 0.430106 0.430116 0.430135 0.430161 0.430191 0.430224 0.43026 0.430297 0.430333 0.430369 0.430403 0.430434 0.430461 0.430481 0.430493 0.430769 0.430756 0.430732 0.4307 0.430662 0.430621 0.430576 0.43053 0.430484 0.430438 0.430393 0.430353 0.430317 0.430289 0.43