# vtk DataFile Version 3.0
Immiscible displacement
ASCII
DATASET RECTILINEAR_GRID
DIMENSIONS 400 100 1
X_COORDINATES 400 double
1 2 3 4 5 6 7 8 9 10 11 12 13 14 15 16 17 18 19 20 21 22 23 24 25 26 27 28 29 30 31 32 33 34 35 36 37 38 39 40 41 42 43 44 45 46 47 48 49 50 51 52 53 54 55 56 57 58 59 60 61 62 63 64 65 66 67 68 69 70 71 72 73 74 75 76 77 78 79 80 81 82 83 84 85 86 87 88 89 90 91 92 93 94 95 96 97 98 99 100 101 102 103 104 105 106 107 108 109 110 111 112 113 114 115 116 117 118 119 120 121 122 123 124 125 126 127 128 129 130 131 132 133 134 135 136 137 138 139 140 141 142 143 144 145 146 147 148 149 150 151 152 153 154 155 156 157 158 159 160 161 162 163 164 165 166 167 168 169 170 171 172 173 174 175 176 177 178 179 180 181 182 183 184 185 186 187 188 189 190 191 192 193 194 195 196 197 198 199 200 201 202 203 204 205 206 207 208 209 210 211 212 213 214 215 216 217 218 219 220 221 222 223 224 225 226 227 228 229 230 231 232 233 234 235 236 237 238 239 240 241 242 243 244 245 246 247 248 249 250 251 252 253 254 255 256 257 258 259 260 261 262 263 264 265 266 267 268 269 270 271 272 273 274 275 276 277 278 279 280 281 282 283 284 285 286 287 288 289 290 291 292 293 294 295 296 297 298 299 300 301 302 303 304 305 306 307 308 309 310 311 312 313 314 315 316 317 318 319 320 321 322 323 324 325 326 327 328 329 330 331 332 333 334 335 336 337 338 339 340 341 342 343 344 345 346 347 348 349 350 351 352 353 354 355 356 357 358 359 360 361 362 363 364 365 366 367 368 369 370 371 372 373 374 375 376 377 378 379 380 381 382 383 384 385 386 387 388 389 390 391 392 393 394 395 396 397 398 399 400 
Y_COORDINATES 100 double
1 2 3 4 5 6 7 8 9 10 11 12 13 14 15 16 17 18 19 20 21 22 23 24 25 26 27 28 29 30 31 32 33 34 35 36 37 38 39 40 41 42 43 44 45 46 47 48 49 50 51 52 53 54 55 56 57 58 59 60 61 62 63 64 65 66 67 68 69 70 71 72 73 74 75 76 77 78 79 80 81 82 83 84 85 86 87 88 89 90 91 92 93 94 95 96 97 98 99 100 
Z_COORDINATES 1 double
0
POINT_DATA 40000
SCALARS rho double 1
LOOKUP_TABLE default
0.475601 0.475602 0.475604 0.475605 0.475607 0.475608 0.47561 0.475612 0.475614 0.475615 0.475617 0.475619 0.475621 0.475623 0.475625 0.475627 0.475629 0.475632 0.475634 0.475637 0.475639 0.475642 0.475644 0.475647 0.47565 0.475653 0.475656 0.475659 0.475663 0.475666 0.47567 0.475673 0.475677 0.47568 0.475684 0.475688 0.475692 0.475696 0.4757 0.475704 0.475708 0.475713 0.475717 0.475721 0.475726 0.47573 0.475735 0.47574 0.475744 0.475749 0.475754 0.475758 0.475763 0.475768 0.475773 0.475778 0.475783 0.475788 0.475793 0.475798 0.475803 0.475808 0.475813 0.475818 0.475823 0.475828 0.475833 0.475838 0.475844 0.475849 0.475854 0.475859 0.475864 0.475869 0.475875 0.47588 0.475885 0.47589 0.475895 0.475901 0.475906 0.475911 0.475916 0.475922 0.475927 0.475932 0.475938 0.475943 0.475948 0.475954 0.475959 0.475965 0.47597 0.475975 0.475981 0.475986 0.475992 0.475998 0.476003 0.476009 0.476015 0.47602 0.476026 0.476032 0.476038 0.476044 0.47605 0.476056 0.476063 0.476069 0.476076 0.476083 0.47609 0.476097 0.476104 0.476112 0.476121 0.47613 0.476139 0.47615 0.476162 0.476175 0.47619 0.476208 0.476229 0.476255 0.476287 0.476327 0.476376 0.47644 0.476522 0.476627 0.476765 0.476944 0.47718 0.47749 0.4779 0.478441 0.479158 0.480109 0.481372 0.483049 0.48528 0.488249 0.492202 0.497468 0.504483 0.513828 0.52627 0.542819 0.564784 0.593833 0.632019 0.681734 0.745489 0.825399 0.922273 1.0344 1.15653 1.28002 1.39478 1.49246 1.56897 1.62474 1.66317 1.68861 1.70501 1.71544 1.72201 1.72615 1.72875 1.73039 1.73144 1.7321 1.73253 1.7328 1.73298 1.7331 1.73318 1.73323 1.73327 1.73329 1.73331 1.73332 1.73333 1.73334 1.73334 1.73334 1.73335 1.73335 1.73335 1.73335 1.73335 1.73336 1.73336 1.73336 1.73336 1.73336 1.73336 1.73336 1.73336 1.73336 1.73336 1.73336 1.73336 1.73336 1.73336 1.73336 1.73335 1.73335 1.73335 1.73335 1.73334 1.73334 1.73333 1.73332 1.73331 1.73329 1.73327 1.73324 1.73318 1.73311 1.73299 1.73281 1.73254 1.73212 1.73146 1.73042 1.72879 1.7262 1.72209 1.71557 1.70522 1.68892 1.66364 1.62545 1.56997 1.49379 1.39641 1.28186 1.15844 1.03622 0.923892 0.826768 0.746603 0.682619 0.63271 0.594368 0.565198 0.54314 0.52652 0.514024 0.504638 0.497593 0.492305 0.488335 0.485353 0.483112 0.481427 0.480159 0.479204 0.478484 0.47794 0.477529 0.477217 0.47698 0.476799 0.476661 0.476555 0.476473 0.476409 0.476359 0.476319 0.476287 0.476261 0.476239 0.476221 0.476206 0.476192 0.47618 0.476169 0.47616 0.476151 0.476142 0.476134 0.476127 0.476119 0.476112 0.476106 0.476099 0.476092 0.476086 0.47608 0.476074 0.476068 0.476062 0.476056 0.47605 0.476044 0.476039 0.476033 0.476028 0.476022 0.476017 0.476011 0.476006 0.476 0.475995 0.47599 0.475984 0.475979 0.475974 0.475969 0.475963 0.475958 0.475953 0.475948 0.475943 0.475938 0.475933 0.475927 0.475922 0.475917 0.475912 0.475907 0.475902 0.475897 0.475892 0.475887 0.475882 0.475877 0.475872 0.475867 0.475862 0.475857 0.475852 0.475847 0.475842 0.475837 0.475832 0.475827 0.475822 0.475817 0.475813 0.475808 0.475803 0.475798 0.475794 0.475789 0.475784 0.47578 0.475775 0.475771 0.475766 0.475762 0.475757 0.475753 0.475749 0.475745 0.47574 0.475736 0.475732 0.475728 0.475725 0.475721 0.475717 0.475713 0.47571 0.475706 0.475703 0.475699 0.475696 0.475693 0.47569 0.475687 0.475684 0.475681 0.475679 0.475676 0.475674 0.475671 0.475669 0.475667 0.475664 0.475662 0.47566 0.475658 0.475657 0.475655 0.475653 0.475651 0.47565 0.475648 0.475646 0.475645 0.475643 0.475642 0.47564 0.475639 0.475638 0.466048 0.466049 0.46605 0.466051 0.466053 0.466055 0.466056 0.466058 0.46606 0.466061 0.466063 0.466065 0.466067 0.466069 0.466071 0.466073 0.466075 0.466077 0.466079 0.466082 0.466084 0.466087 0.46609 0.466092 0.466095 0.466098 0.466101 0.466104 0.466107 0.466111 0.466114 0.466117 0.466121 0.466125 0.466128 0.466132 0.466136 0.46614 0.466144 0.466148 0.466152 0.466156 0.46616 0.466164 0.466169 0.466173 0.466177 0.466182 0.466186 0.466191 0.466196 0.4662 0.466205 0.46621 0.466214 0.466219 0.466224 0.466229 0.466234 0.466238 0.466243 0.466248 0.466253 0.466258 0.466263 0.466268 0.466273 0.466278 0.466283 0.466288 0.466293 0.466298 0.466303 0.466308 0.466313 0.466318 0.466323 0.466328 0.466333 0.466339 0.466344 0.466349 0.466354 0.466359 0.466364 0.466369 0.466374 0.46638 0.466385 0.46639 0.466395 0.466401 0.466406 0.466411 0.466416 0.466422 0.466427 0.466433 0.466438 0.466444 0.466449 0.466455 0.46646 0.466466 0.466472 0.466478 0.466484 0.46649 0.466496 0.466502 0.466509 0.466515 0.466522 0.466529 0.466537 0.466544 0.466552 0.466561 0.46657 0.466581 0.466592 0.466605 0.46662 0.466637 0.466658 0.466683 0.466713 0.466751 0.466799 0.466861 0.466939 0.467041 0.467174 0.467347 0.467574 0.467872 0.468267 0.468788 0.469477 0.470392 0.471606 0.473219 0.475362 0.478214 0.48201 0.487063 0.493791 0.502748 0.514666 0.530506 0.551513 0.579272 0.615738 0.663191 0.724045 0.800388 0.893149 1.00098 1.11925 1.24004 1.35376 1.45205 1.53033 1.58835 1.62895 1.6562 1.67399 1.68541 1.69267 1.69727 1.70019 1.70205 1.70323 1.70399 1.70447 1.70479 1.705 1.70514 1.70523 1.70529 1.70533 1.70536 1.70538 1.70539 1.7054 1.70541 1.70541 1.70542 1.70542 1.70542 1.70543 1.70543 1.70543 1.70543 1.70543 1.70543 1.70543 1.70544 1.70544 1.70544 1.70544 1.70544 1.70544 1.70544 1.70543 1.70543 1.70543 1.70543 1.70543 1.70543 1.70542 1.70542 1.70542 1.70541 1.7054 1.70539 1.70538 1.70536 1.70533 1.70529 1.70523 1.70514 1.70501 1.7048 1.70449 1.704 1.70325 1.70207 1.70023 1.69733 1.69276 1.68555 1.67421 1.65654 1.62946 1.58909 1.53136 1.4534 1.35539 1.24186 1.12111 1.00273 0.894702 0.801696 0.725109 0.664035 0.616398 0.579784 0.551909 0.530813 0.514906 0.502936 0.49394 0.487183 0.482108 0.478297 0.475432 0.473279 0.47166 0.470441 0.469522 0.468829 0.468305 0.46791 0.467609 0.467381 0.467207 0.467074 0.466972 0.466893 0.466831 0.466782 0.466744 0.466713 0.466688 0.466667 0.46665 0.466635 0.466622 0.46661 0.4666 0.46659 0.466581 0.466573 0.466566 0.466558 0.466551 0.466544 0.466538 0.466531 0.466525 0.466519 0.466513 0.466507 0.466501 0.466495 0.466489 0.466484 0.466478 0.466473 0.466467 0.466462 0.466456 0.466451 0.466446 0.466441 0.466435 0.46643 0.466425 0.46642 0.466415 0.46641 0.466405 0.4664 0.466394 0.466389 0.466384 0.466379 0.466374 0.46637 0.466364 0.46636 0.466355 0.46635 0.466345 0.46634 0.466335 0.46633 0.466325 0.46632 0.466315 0.46631 0.466306 0.466301 0.466296 0.466291 0.466286 0.466281 0.466277 0.466272 0.466267 0.466262 0.466258 0.466253 0.466248 0.466244 0.466239 0.466235 0.46623 0.466226 0.466221 0.466217 0.466212 0.466208 0.466204 0.466199 0.466195 0.466191 0.466187 0.466183 0.466179 0.466175 0.466171 0.466167 0.466164 0.46616 0.466156 0.466153 0.46615 0.466146 0.466143 0.46614 0.466137 0.466134 0.466131 0.466128 0.466125 0.466123 0.46612 0.466118 0.466115 0.466113 0.466111 0.466109 0.466107 0.466105 0.466103 0.466101 0.4661 0.466098 0.466096 0.466095 0.466093 0.466092 0.46609 0.466089 0.466087 0.466086 0.466085 0.466084 0.45884 0.45884 0.458841 0.458843 0.458844 0.458845 0.458847 0.458848 0.45885 0.458852 0.458853 0.458855 0.458857 0.458859 0.458861 0.458863 0.458865 0.458867 0.458869 0.458872 0.458874 0.458877 0.458879 0.458882 0.458885 0.458887 0.45889 0.458893 0.458896 0.4589 0.458903 0.458906 0.45891 0.458913 0.458917 0.45892 0.458924 0.458928 0.458932 0.458936 0.45894 0.458944 0.458948 0.458952 0.458956 0.45896 0.458965 0.458969 0.458973 0.458978 0.458982 0.458987 0.458991 0.458996 0.459 0.459005 0.45901 0.459014 0.459019 0.459024 0.459028 0.459033 0.459038 0.459043 0.459048 0.459052 0.459057 0.459062 0.459067 0.459072 0.459077 0.459082 0.459087 0.459091 0.459096 0.459101 0.459106 0.459111 0.459116 0.459121 0.459126 0.459131 0.459136 0.459141 0.459146 0.459151 0.459156 0.459161 0.459166 0.459171 0.459176 0.459181 0.459186 0.459192 0.459197 0.459202 0.459207 0.459213 0.459218 0.459223 0.459229 0.459234 0.45924 0.459245 0.459251 0.459257 0.459262 0.459268 0.459274 0.45928 0.459287 0.459293 0.4593 0.459306 0.459313 0.459321 0.459329 0.459337 0.459346 0.459356 0.459367 0.45938 0.459394 0.45941 0.45943 0.459454 0.459483 0.45952 0.459566 0.459625 0.4597 0.459797 0.459923 0.460089 0.460305 0.46059 0.460965 0.461462 0.462118 0.462989 0.464143 0.465676 0.467711 0.470418 0.474016 0.478803 0.485169 0.493635 0.504885 0.519815 0.539588 0.565681 0.599915 0.644431 0.701529 0.773284 0.860834 0.963382 1.07721 1.19544 1.30918 1.41002 1.49253 1.55537 1.60046 1.63141 1.65201 1.66544 1.6741 1.67966 1.68322 1.6855 1.68697 1.68792 1.68854 1.68894 1.6892 1.68938 1.6895 1.68957 1.68963 1.68967 1.68969 1.68971 1.68972 1.68973 1.68974 1.68975 1.68975 1.68975 1.68976 1.68976 1.68976 1.68976 1.68976 1.68977 1.68977 1.68977 1.68977 1.68977 1.68977 1.68977 1.68977 1.68977 1.68977 1.68976 1.68976 1.68976 1.68976 1.68976 1.68975 1.68975 1.68974 1.68974 1.68973 1.68971 1.6897 1.68967 1.68963 1.68958 1.6895 1.68939 1.68921 1.68895 1.68855 1.68794 1.68699 1.68554 1.68327 1.67973 1.67421 1.66561 1.65226 1.6318 1.60103 1.55618 1.49364 1.41142 1.31084 1.19724 1.07901 0.965056 0.862304 0.774516 0.702528 0.645223 0.600534 0.566162 0.539961 0.520105 0.505111 0.493813 0.485311 0.478917 0.47411 0.470496 0.467778 0.465734 0.464195 0.463035 0.462161 0.461502 0.461003 0.460626 0.46034 0.460122 0.459956 0.459829 0.459731 0.459656 0.459597 0.45955 0.459513 0.459484 0.45946 0.45944 0.459423 0.459408 0.459396 0.459385 0.459375 0.459366 0.459357 0.459349 0.459342 0.459335 0.459328 0.459321 0.459315 0.459308 0.459302 0.459296 0.45929 0.459285 0.459279 0.459273 0.459268 0.459262 0.459257 0.459251 0.459246 0.459241 0.459236 0.45923 0.459225 0.45922 0.459215 0.45921 0.459205 0.4592 0.459195 0.45919 0.459185 0.45918 0.459175 0.459171 0.459166 0.459161 0.459156 0.459151 0.459146 0.459141 0.459137 0.459132 0.459127 0.459122 0.459117 0.459113 0.459108 0.459103 0.459098 0.459094 0.459089 0.459084 0.45908 0.459075 0.45907 0.459066 0.459061 0.459056 0.459052 0.459047 0.459042 0.459038 0.459033 0.459029 0.459024 0.45902 0.459016 0.459011 0.459007 0.459003 0.458998 0.458994 0.45899 0.458986 0.458982 0.458978 0.458974 0.45897 0.458966 0.458962 0.458959 0.458955 0.458951 0.458948 0.458944 0.458941 0.458938 0.458934 0.458931 0.458928 0.458925 0.458922 0.458919 0.458917 0.458914 0.458912 0.458909 0.458907 0.458904 0.458902 0.4589 0.458898 0.458896 0.458894 0.458892 0.458891 0.458889 0.458887 0.458886 0.458884 0.458883 0.458881 0.45888 0.458879 0.458877 0.458876 0.458875 0.458875 0.453406 0.453406 0.453407 0.453408 0.453409 0.453411 0.453412 0.453414 0.453415 0.453417 0.453418 0.45342 0.453422 0.453424 0.453426 0.453428 0.45343 0.453432 0.453434 0.453436 0.453438 0.453441 0.453443 0.453446 0.453449 0.453451 0.453454 0.453457 0.45346 0.453463 0.453466 0.45347 0.453473 0.453476 0.45348 0.453483 0.453487 0.453491 0.453494 0.453498 0.453502 0.453506 0.45351 0.453514 0.453518 0.453522 0.453526 0.453531 0.453535 0.453539 0.453543 0.453548 0.453552 0.453557 0.453561 0.453566 0.45357 0.453575 0.453579 0.453584 0.453588 0.453593 0.453598 0.453602 0.453607 0.453612 0.453616 0.453621 0.453626 0.453631 0.453635 0.45364 0.453645 0.45365 0.453654 0.453659 0.453664 0.453669 0.453674 0.453678 0.453683 0.453688 0.453693 0.453698 0.453703 0.453708 0.453712 0.453717 0.453722 0.453727 0.453732 0.453737 0.453742 0.453747 0.453752 0.453757 0.453762 0.453768 0.453773 0.453778 0.453783 0.453788 0.453794 0.453799 0.453805 0.45381 0.453816 0.453822 0.453827 0.453833 0.453839 0.453846 0.453852 0.453859 0.453866 0.453873 0.45388 0.453889 0.453897 0.453907 0.453917 0.453929 0.453943 0.453959 0.453978 0.454001 0.454029 0.454064 0.454107 0.454163 0.454234 0.454327 0.454446 0.454603 0.454807 0.455077 0.455432 0.4559 0.45652 0.45734 0.458427 0.45987 0.461784 0.464325 0.4677 0.472184 0.478138 0.486043 0.496529 0.51042 0.528782 0.552967 0.584649 0.625811 0.67862 0.745134 0.826716 0.923175 1.03183 1.14702 1.26077 1.36474 1.45267 1.52185 1.57304 1.60913 1.6337 1.65004 1.66075 1.66772 1.67223 1.67516 1.67706 1.6783 1.67911 1.67964 1.67999 1.68023 1.68039 1.6805 1.68057 1.68062 1.68066 1.68068 1.6807 1.68071 1.68072 1.68073 1.68074 1.68074 1.68074 1.68075 1.68075 1.68075 1.68075 1.68075 1.68076 1.68076 1.68076 1.68076 1.68076 1.68076 1.68076 1.68076 1.68075 1.68075 1.68075 1.68075 1.68075 1.68074 1.68074 1.68073 1.68073 1.68072 1.6807 1.68069 1.68066 1.68063 1.68057 1.6805 1.6804 1.68024 1.68 1.67965 1.67912 1.67832 1.67709 1.6752 1.67229 1.66781 1.66089 1.65025 1.63401 1.60958 1.57369 1.52276 1.45386 1.36621 1.26245 1.14879 1.03356 0.92476 0.82809 0.746278 0.679545 0.626543 0.585223 0.553413 0.529129 0.510691 0.496741 0.48621 0.478271 0.472292 0.467789 0.4644 0.461847 0.459925 0.458477 0.457385 0.456561 0.455939 0.455468 0.455111 0.454841 0.454635 0.454478 0.454357 0.454265 0.454193 0.454137 0.454093 0.454058 0.45403 0.454006 0.453987 0.453971 0.453957 0.453945 0.453935 0.453925 0.453916 0.453908 0.4539 0.453893 0.453886 0.453879 0.453873 0.453867 0.453861 0.453855 0.453849 0.453843 0.453838 0.453832 0.453827 0.453821 0.453816 0.453811 0.453805 0.4538 0.453795 0.45379 0.453785 0.45378 0.453775 0.45377 0.453765 0.45376 0.453755 0.45375 0.453746 0.453741 0.453736 0.453731 0.453727 0.453722 0.453717 0.453712 0.453708 0.453703 0.453698 0.453694 0.453689 0.453684 0.45368 0.453675 0.45367 0.453666 0.453661 0.453656 0.453652 0.453647 0.453643 0.453638 0.453634 0.453629 0.453625 0.45362 0.453616 0.453611 0.453607 0.453602 0.453598 0.453593 0.453589 0.453585 0.45358 0.453576 0.453572 0.453568 0.453563 0.453559 0.453555 0.453551 0.453547 0.453543 0.453539 0.453535 0.453532 0.453528 0.453524 0.453521 0.453517 0.453514 0.45351 0.453507 0.453503 0.4535 0.453497 0.453494 0.453491 0.453488 0.453485 0.453483 0.45348 0.453477 0.453475 0.453473 0.45347 0.453468 0.453466 0.453464 0.453462 0.45346 0.453458 0.453456 0.453455 0.453453 0.453451 0.45345 0.453448 0.453447 0.453446 0.453444 0.453443 0.453442 0.453441 0.45344 0.45344 0.449312 0.449313 0.449313 0.449314 0.449315 0.449317 0.449318 0.449319 0.449321 0.449322 0.449324 0.449325 0.449327 0.449329 0.449331 0.449333 0.449335 0.449337 0.449339 0.449341 0.449343 0.449346 0.449348 0.449351 0.449353 0.449356 0.449359 0.449362 0.449364 0.449368 0.449371 0.449374 0.449377 0.44938 0.449384 0.449387 0.449391 0.449394 0.449398 0.449402 0.449405 0.449409 0.449413 0.449417 0.449421 0.449425 0.449429 0.449433 0.449437 0.449441 0.449446 0.44945 0.449454 0.449458 0.449463 0.449467 0.449472 0.449476 0.44948 0.449485 0.449489 0.449494 0.449498 0.449503 0.449507 0.449512 0.449517 0.449521 0.449526 0.44953 0.449535 0.44954 0.449544 0.449549 0.449554 0.449558 0.449563 0.449568 0.449572 0.449577 0.449582 0.449586 0.449591 0.449596 0.449601 0.449605 0.44961 0.449615 0.44962 0.449624 0.449629 0.449634 0.449639 0.449644 0.449649 0.449654 0.449659 0.449664 0.449669 0.449674 0.449679 0.449684 0.449689 0.449695 0.4497 0.449706 0.449711 0.449717 0.449722 0.449728 0.449734 0.44974 0.449746 0.449753 0.449759 0.449766 0.449774 0.449782 0.44979 0.449799 0.449809 0.449821 0.449834 0.449849 0.449867 0.449889 0.449915 0.449948 0.44999 0.450042 0.45011 0.450197 0.450309 0.450456 0.450649 0.450902 0.451235 0.451674 0.452254 0.453021 0.454036 0.455382 0.457165 0.45953 0.462666 0.466824 0.472336 0.479639 0.489307 0.502086 0.518938 0.541089 0.570055 0.607647 0.65589 0.7168 0.79193 0.881657 0.984319 1.09557 1.20857 1.31534 1.40893 1.48529 1.54374 1.58621 1.61588 1.63604 1.64949 1.65837 1.6642 1.66801 1.67052 1.67216 1.67325 1.67397 1.67445 1.67478 1.67499 1.67514 1.67524 1.67532 1.67537 1.6754 1.67543 1.67545 1.67546 1.67547 1.67548 1.67548 1.67549 1.67549 1.6755 1.6755 1.6755 1.6755 1.6755 1.6755 1.6755 1.6755 1.6755 1.6755 1.6755 1.6755 1.6755 1.6755 1.6755 1.67549 1.67549 1.67549 1.67548 1.67547 1.67546 1.67545 1.67543 1.67541 1.67537 1.67532 1.67525 1.67515 1.675 1.67478 1.67446 1.67399 1.67327 1.67219 1.67055 1.66807 1.66427 1.65848 1.64966 1.63629 1.61626 1.58675 1.5445 1.48631 1.41023 1.31687 1.21026 1.0973 0.985969 0.883141 0.7932 0.71785 0.656736 0.608317 0.57058 0.541498 0.519258 0.502335 0.489503 0.479795 0.472461 0.466925 0.462749 0.459601 0.457226 0.455435 0.454084 0.453064 0.452293 0.451711 0.45127 0.450935 0.450681 0.450488 0.45034 0.450227 0.450139 0.450072 0.450019 0.449977 0.449944 0.449917 0.449895 0.449877 0.449861 0.449848 0.449836 0.449826 0.449817 0.449808 0.4498 0.449793 0.449786 0.449779 0.449773 0.449767 0.44976 0.449755 0.449749 0.449743 0.449738 0.449732 0.449727 0.449721 0.449716 0.449711 0.449706 0.449701 0.449696 0.449691 0.449686 0.449681 0.449676 0.449671 0.449666 0.449661 0.449657 0.449652 0.449647 0.449643 0.449638 0.449633 0.449628 0.449624 0.449619 0.449615 0.44961 0.449605 0.449601 0.449596 0.449592 0.449587 0.449583 0.449578 0.449574 0.449569 0.449565 0.44956 0.449556 0.449551 0.449547 0.449542 0.449538 0.449533 0.449529 0.449525 0.44952 0.449516 0.449511 0.449507 0.449503 0.449498 0.449494 0.44949 0.449486 0.449481 0.449477 0.449473 0.449469 0.449465 0.449461 0.449457 0.449453 0.449449 0.449445 0.449442 0.449438 0.449434 0.44943 0.449427 0.449423 0.44942 0.449417 0.449413 0.44941 0.449407 0.449404 0.449401 0.449398 0.449395 0.449392 0.449389 0.449386 0.449384 0.449381 0.449379 0.449377 0.449374 0.449372 0.44937 0.449368 0.449366 0.449364 0.449363 0.449361 0.449359 0.449358 0.449356 0.449355 0.449353 0.449352 0.449351 0.449349 0.449348 0.449347 0.449346 0.449346 0.449346 0.44623 0.44623 0.446231 0.446232 0.446233 0.446234 0.446235 0.446236 0.446238 0.446239 0.446241 0.446242 0.446244 0.446246 0.446247 0.446249 0.446251 0.446253 0.446255 0.446257 0.44626 0.446262 0.446264 0.446267 0.446269 0.446272 0.446275 0.446277 0.44628 0.446283 0.446286 0.446289 0.446292 0.446296 0.446299 0.446302 0.446306 0.446309 0.446313 0.446316 0.44632 0.446324 0.446328 0.446331 0.446335 0.446339 0.446343 0.446347 0.446351 0.446355 0.446359 0.446363 0.446368 0.446372 0.446376 0.44638 0.446385 0.446389 0.446393 0.446398 0.446402 0.446406 0.446411 0.446415 0.44642 0.446424 0.446429 0.446433 0.446438 0.446442 0.446447 0.446451 0.446456 0.44646 0.446465 0.446469 0.446474 0.446478 0.446483 0.446488 0.446492 0.446497 0.446501 0.446506 0.446511 0.446515 0.44652 0.446525 0.446529 0.446534 0.446539 0.446543 0.446548 0.446553 0.446558 0.446563 0.446567 0.446572 0.446577 0.446582 0.446587 0.446592 0.446597 0.446603 0.446608 0.446613 0.446618 0.446624 0.446629 0.446635 0.446641 0.446647 0.446653 0.446659 0.446666 0.446672 0.446679 0.446687 0.446695 0.446704 0.446714 0.446725 0.446737 0.446752 0.446769 0.44679 0.446815 0.446846 0.446885 0.446934 0.446998 0.447079 0.447185 0.447322 0.447502 0.447738 0.448048 0.448456 0.448996 0.449708 0.450649 0.451895 0.453543 0.455725 0.458613 0.462436 0.467492 0.474176 0.483003 0.494642 0.509953 0.53003 0.556234 0.590201 0.633799 0.68897 0.757394 0.839923 0.935815 1.04203 1.15302 1.26151 1.36026 1.44398 1.51048 1.56044 1.59634 1.62131 1.6383 1.6497 1.65728 1.6623 1.66563 1.66784 1.66931 1.67029 1.67095 1.6714 1.6717 1.67191 1.67205 1.67215 1.67222 1.67227 1.67231 1.67234 1.67235 1.67237 1.67238 1.67239 1.6724 1.6724 1.6724 1.67241 1.67241 1.67241 1.67241 1.67242 1.67242 1.67242 1.67242 1.67242 1.67241 1.67241 1.67241 1.67241 1.67241 1.6724 1.6724 1.67239 1.67238 1.67237 1.67236 1.67234 1.67231 1.67228 1.67223 1.67216 1.67206 1.67192 1.67171 1.67141 1.67096 1.67031 1.66933 1.66787 1.66568 1.66237 1.65738 1.64984 1.63852 1.62163 1.59679 1.56108 1.51136 1.44512 1.36165 1.2631 1.1547 1.0437 0.937371 0.841295 0.758556 0.689924 0.634565 0.590807 0.55671 0.530402 0.510244 0.49487 0.483184 0.47432 0.467608 0.46253 0.458692 0.455792 0.453601 0.451945 0.450694 0.449749 0.449033 0.448492 0.448082 0.44777 0.447533 0.447352 0.447214 0.447108 0.447026 0.446963 0.446913 0.446874 0.446842 0.446817 0.446796 0.446779 0.446764 0.446751 0.44674 0.44673 0.446721 0.446713 0.446706 0.446698 0.446692 0.446685 0.446679 0.446673 0.446667 0.446661 0.446655 0.44665 0.446644 0.446639 0.446634 0.446629 0.446623 0.446618 0.446613 0.446608 0.446603 0.446599 0.446594 0.446589 0.446584 0.446579 0.446575 0.44657 0.446565 0.446561 0.446556 0.446552 0.446547 0.446542 0.446538 0.446533 0.446529 0.446524 0.44652 0.446515 0.446511 0.446506 0.446502 0.446498 0.446493 0.446489 0.446484 0.44648 0.446475 0.446471 0.446467 0.446462 0.446458 0.446454 0.446449 0.446445 0.446441 0.446436 0.446432 0.446428 0.446424 0.446419 0.446415 0.446411 0.446407 0.446403 0.446399 0.446394 0.44639 0.446386 0.446382 0.446378 0.446375 0.446371 0.446367 0.446363 0.446359 0.446356 0.446352 0.446348 0.446345 0.446341 0.446338 0.446334 0.446331 0.446328 0.446325 0.446322 0.446319 0.446316 0.446313 0.44631 0.446307 0.446304 0.446302 0.446299 0.446297 0.446295 0.446292 0.44629 0.446288 0.446286 0.446284 0.446282 0.44628 0.446278 0.446277 0.446275 0.446274 0.446272 0.446271 0.446269 0.446268 0.446267 0.446266 0.446265 0.446264 0.446263 0.446263 0.446263 0.44391 0.44391 0.443911 0.443911 0.443912 0.443913 0.443914 0.443916 0.443917 0.443918 0.44392 0.443921 0.443923 0.443925 0.443926 0.443928 0.44393 0.443932 0.443934 0.443936 0.443938 0.44394 0.443943 0.443945 0.443948 0.44395 0.443953 0.443956 0.443958 0.443961 0.443964 0.443967 0.44397 0.443974 0.443977 0.44398 0.443983 0.443987 0.44399 0.443994 0.443997 0.444001 0.444005 0.444008 0.444012 0.444016 0.44402 0.444024 0.444028 0.444032 0.444036 0.44404 0.444044 0.444048 0.444052 0.444056 0.444061 0.444065 0.444069 0.444073 0.444077 0.444082 0.444086 0.44409 0.444095 0.444099 0.444103 0.444108 0.444112 0.444117 0.444121 0.444126 0.44413 0.444134 0.444139 0.444143 0.444148 0.444152 0.444157 0.444161 0.444166 0.44417 0.444175 0.444179 0.444184 0.444188 0.444193 0.444197 0.444202 0.444207 0.444211 0.444216 0.44422 0.444225 0.44423 0.444235 0.444239 0.444244 0.444249 0.444254 0.444259 0.444264 0.444269 0.444274 0.444279 0.444284 0.444289 0.444295 0.4443 0.444306 0.444311 0.444317 0.444323 0.444329 0.444335 0.444342 0.444349 0.444356 0.444364 0.444373 0.444382 0.444392 0.444404 0.444418 0.444434 0.444454 0.444478 0.444507 0.444544 0.44459 0.444649 0.444725 0.444823 0.444951 0.445118 0.445337 0.445624 0.446002 0.4465 0.447157 0.448023 0.449168 0.450681 0.452679 0.455318 0.458804 0.463403 0.46947 0.477459 0.487966 0.501752 0.519784 0.54327 0.573674 0.612696 0.662174 0.72384 0.798895 0.887372 0.987425 1.09488 1.20351 1.30621 1.39685 1.47172 1.53004 1.57329 1.60418 1.62566 1.64032 1.65022 1.65686 1.6613 1.66428 1.66628 1.66762 1.66853 1.66915 1.66958 1.66987 1.67007 1.67021 1.67032 1.67039 1.67044 1.67048 1.67051 1.67053 1.67054 1.67055 1.67056 1.67057 1.67058 1.67058 1.67058 1.67059 1.67059 1.67059 1.67059 1.67059 1.67059 1.67059 1.67059 1.67059 1.67058 1.67058 1.67058 1.67057 1.67057 1.67056 1.67054 1.67053 1.67051 1.67048 1.67044 1.67039 1.67032 1.67022 1.67008 1.66988 1.66959 1.66916 1.66855 1.66764 1.66631 1.66432 1.66136 1.65694 1.65034 1.64051 1.62593 1.60457 1.57384 1.5308 1.47273 1.39811 1.30769 1.20513 1.09654 0.989019 0.888819 0.800151 0.724891 0.663031 0.613383 0.574218 0.543698 0.52012 0.502015 0.488174 0.477624 0.469601 0.46351 0.458891 0.455392 0.452741 0.450735 0.449216 0.448066 0.447196 0.446536 0.446036 0.445657 0.445368 0.445148 0.444981 0.444852 0.444753 0.444677 0.444618 0.444571 0.444534 0.444504 0.444481 0.444461 0.444444 0.44443 0.444418 0.444408 0.444398 0.44439 0.444382 0.444374 0.444367 0.444361 0.444354 0.444348 0.444342 0.444337 0.444331 0.444325 0.44432 0.444315 0.444309 0.444304 0.444299 0.444294 0.444289 0.444284 0.444279 0.444275 0.44427 0.444265 0.44426 0.444256 0.444251 0.444246 0.444242 0.444237 0.444233 0.444228 0.444224 0.444219 0.444215 0.44421 0.444206 0.444202 0.444197 0.444193 0.444188 0.444184 0.44418 0.444175 0.444171 0.444167 0.444162 0.444158 0.444154 0.444149 0.444145 0.444141 0.444137 0.444132 0.444128 0.444124 0.44412 0.444115 0.444111 0.444107 0.444103 0.444099 0.444095 0.44409 0.444086 0.444082 0.444078 0.444074 0.44407 0.444066 0.444062 0.444058 0.444055 0.444051 0.444047 0.444043 0.44404 0.444036 0.444032 0.444029 0.444025 0.444022 0.444018 0.444015 0.444012 0.444008 0.444005 0.444002 0.443999 0.443996 0.443993 0.44399 0.443988 0.443985 0.443982 0.44398 0.443977 0.443975 0.443973 0.44397 0.443968 0.443966 0.443964 0.443962 0.44396 0.443959 0.443957 0.443955 0.443954 0.443952 0.443951 0.443949 0.443948 0.443947 0.443946 0.443945 0.443944 0.443943 0.443943 0.443942 0.443942 0.442164 0.442165 0.442165 0.442166 0.442166 0.442167 0.442168 0.442169 0.442171 0.442172 0.442173 0.442175 0.442176 0.442178 0.44218 0.442181 0.442183 0.442185 0.442187 0.442189 0.442191 0.442194 0.442196 0.442198 0.442201 0.442203 0.442206 0.442208 0.442211 0.442214 0.442217 0.44222 0.442223 0.442226 0.442229 0.442232 0.442236 0.442239 0.442242 0.442246 0.442249 0.442253 0.442256 0.44226 0.442264 0.442268 0.442271 0.442275 0.442279 0.442283 0.442287 0.442291 0.442295 0.442299 0.442303 0.442307 0.442311 0.442315 0.442319 0.442324 0.442328 0.442332 0.442336 0.44234 0.442345 0.442349 0.442353 0.442358 0.442362 0.442366 0.44237 0.442375 0.442379 0.442384 0.442388 0.442392 0.442397 0.442401 0.442405 0.44241 0.442414 0.442419 0.442423 0.442427 0.442432 0.442436 0.442441 0.442445 0.44245 0.442454 0.442459 0.442463 0.442468 0.442473 0.442477 0.442482 0.442487 0.442491 0.442496 0.442501 0.442506 0.44251 0.442515 0.44252 0.442525 0.44253 0.442535 0.442541 0.442546 0.442551 0.442557 0.442563 0.442568 0.442574 0.44258 0.442587 0.442593 0.442601 0.442608 0.442616 0.442625 0.442636 0.442647 0.44266 0.442675 0.442694 0.442716 0.442744 0.442778 0.442821 0.442876 0.442947 0.443038 0.443156 0.44331 0.443512 0.443777 0.444124 0.444581 0.445183 0.445976 0.447021 0.448399 0.450216 0.452611 0.455766 0.459919 0.465382 0.472557 0.481967 0.494279 0.510344 0.531221 0.558208 0.592832 0.636799 0.691826 0.759336 0.83995 0.932854 1.03522 1.14207 1.24696 1.34336 1.42634 1.49354 1.54515 1.58313 1.61019 1.62904 1.64198 1.65077 1.65673 1.66075 1.66348 1.66533 1.6666 1.66746 1.66806 1.66847 1.66876 1.66896 1.66911 1.66921 1.66929 1.66934 1.66938 1.66941 1.66944 1.66945 1.66947 1.66948 1.66948 1.66949 1.66949 1.6695 1.6695 1.6695 1.6695 1.6695 1.6695 1.6695 1.6695 1.6695 1.6695 1.66949 1.66949 1.66948 1.66947 1.66946 1.66944 1.66942 1.66939 1.66935 1.66929 1.66922 1.66911 1.66897 1.66877 1.66848 1.66807 1.66748 1.66662 1.66536 1.66352 1.66081 1.6568 1.65088 1.64214 1.62928 1.61053 1.58361 1.54582 1.49443 1.42748 1.34473 1.2485 1.14369 1.03682 0.934349 0.841279 0.760471 0.692767 0.637563 0.593443 0.558691 0.531603 0.510644 0.494516 0.482154 0.472707 0.465502 0.460017 0.455847 0.452679 0.450275 0.448451 0.447067 0.446017 0.445221 0.444616 0.444157 0.443808 0.443543 0.44334 0.443185 0.443066 0.442974 0.442903 0.442848 0.442805 0.44277 0.442742 0.44272 0.442701 0.442686 0.442672 0.442661 0.442651 0.442642 0.442633 0.442626 0.442619 0.442612 0.442605 0.442599 0.442593 0.442587 0.442582 0.442576 0.442571 0.442566 0.44256 0.442555 0.44255 0.442545 0.44254 0.442535 0.442531 0.442526 0.442521 0.442516 0.442512 0.442507 0.442503 0.442498 0.442493 0.442489 0.442484 0.44248 0.442476 0.442471 0.442467 0.442462 0.442458 0.442454 0.442449 0.442445 0.442441 0.442437 0.442432 0.442428 0.442424 0.442419 0.442415 0.442411 0.442407 0.442403 0.442398 0.442394 0.44239 0.442386 0.442381 0.442377 0.442373 0.442369 0.442365 0.442361 0.442357 0.442353 0.442349 0.442345 0.44234 0.442336 0.442332 0.442329 0.442325 0.442321 0.442317 0.442313 0.442309 0.442305 0.442302 0.442298 0.442294 0.442291 0.442287 0.442284 0.44228 0.442277 0.442273 0.44227 0.442267 0.442263 0.44226 0.442257 0.442254 0.442251 0.442248 0.442245 0.442243 0.44224 0.442237 0.442235 0.442232 0.44223 0.442227 0.442225 0.442223 0.442221 0.442219 0.442217 0.442215 0.442213 0.442211 0.44221 0.442208 0.442207 0.442205 0.442204 0.442203 0.442201 0.4422 0.442199 0.442198 0.442197 0.442197 0.442196 0.442196 0.442196 0.440851 0.440851 0.440852 0.440852 0.440853 0.440854 0.440855 0.440856 0.440857 0.440858 0.440859 0.440861 0.440862 0.440864 0.440865 0.440867 0.440869 0.440871 0.440873 0.440875 0.440877 0.440879 0.440881 0.440884 0.440886 0.44