# vtk DataFile Version 3.0
Immiscible displacement
ASCII
DATASET RECTILINEAR_GRID
<<<<<<< HEAD
DIMENSIONS 200 200 1
X_COORDINATES 200 double
1 2 3 4 5 6 7 8 9 10 11 12 13 14 15 16 17 18 19 20 21 22 23 24 25 26 27 28 29 30 31 32 33 34 35 36 37 38 39 40 41 42 43 44 45 46 47 48 49 50 51 52 53 54 55 56 57 58 59 60 61 62 63 64 65 66 67 68 69 70 71 72 73 74 75 76 77 78 79 80 81 82 83 84 85 86 87 88 89 90 91 92 93 94 95 96 97 98 99 100 101 102 103 104 105 106 107 108 109 110 111 112 113 114 115 116 117 118 119 120 121 122 123 124 125 126 127 128 129 130 131 132 133 134 135 136 137 138 139 140 141 142 143 144 145 146 147 148 149 150 151 152 153 154 155 156 157 158 159 160 161 162 163 164 165 166 167 168 169 170 171 172 173 174 175 176 177 178 179 180 181 182 183 184 185 186 187 188 189 190 191 192 193 194 195 196 197 198 199 200 
Y_COORDINATES 200 double
1 2 3 4 5 6 7 8 9 10 11 12 13 14 15 16 17 18 19 20 21 22 23 24 25 26 27 28 29 30 31 32 33 34 35 36 37 38 39 40 41 42 43 44 45 46 47 48 49 50 51 52 53 54 55 56 57 58 59 60 61 62 63 64 65 66 67 68 69 70 71 72 73 74 75 76 77 78 79 80 81 82 83 84 85 86 87 88 89 90 91 92 93 94 95 96 97 98 99 100 101 102 103 104 105 106 107 108 109 110 111 112 113 114 115 116 117 118 119 120 121 122 123 124 125 126 127 128 129 130 131 132 133 134 135 136 137 138 139 140 141 142 143 144 145 146 147 148 149 150 151 152 153 154 155 156 157 158 159 160 161 162 163 164 165 166 167 168 169 170 171 172 173 174 175 176 177 178 179 180 181 182 183 184 185 186 187 188 189 190 191 192 193 194 195 196 197 198 199 200 
=======
DIMENSIONS 400 100 1
X_COORDINATES 400 double
1 2 3 4 5 6 7 8 9 10 11 12 13 14 15 16 17 18 19 20 21 22 23 24 25 26 27 28 29 30 31 32 33 34 35 36 37 38 39 40 41 42 43 44 45 46 47 48 49 50 51 52 53 54 55 56 57 58 59 60 61 62 63 64 65 66 67 68 69 70 71 72 73 74 75 76 77 78 79 80 81 82 83 84 85 86 87 88 89 90 91 92 93 94 95 96 97 98 99 100 101 102 103 104 105 106 107 108 109 110 111 112 113 114 115 116 117 118 119 120 121 122 123 124 125 126 127 128 129 130 131 132 133 134 135 136 137 138 139 140 141 142 143 144 145 146 147 148 149 150 151 152 153 154 155 156 157 158 159 160 161 162 163 164 165 166 167 168 169 170 171 172 173 174 175 176 177 178 179 180 181 182 183 184 185 186 187 188 189 190 191 192 193 194 195 196 197 198 199 200 201 202 203 204 205 206 207 208 209 210 211 212 213 214 215 216 217 218 219 220 221 222 223 224 225 226 227 228 229 230 231 232 233 234 235 236 237 238 239 240 241 242 243 244 245 246 247 248 249 250 251 252 253 254 255 256 257 258 259 260 261 262 263 264 265 266 267 268 269 270 271 272 273 274 275 276 277 278 279 280 281 282 283 284 285 286 287 288 289 290 291 292 293 294 295 296 297 298 299 300 301 302 303 304 305 306 307 308 309 310 311 312 313 314 315 316 317 318 319 320 321 322 323 324 325 326 327 328 329 330 331 332 333 334 335 336 337 338 339 340 341 342 343 344 345 346 347 348 349 350 351 352 353 354 355 356 357 358 359 360 361 362 363 364 365 366 367 368 369 370 371 372 373 374 375 376 377 378 379 380 381 382 383 384 385 386 387 388 389 390 391 392 393 394 395 396 397 398 399 400 
Y_COORDINATES 100 double
1 2 3 4 5 6 7 8 9 10 11 12 13 14 15 16 17 18 19 20 21 22 23 24 25 26 27 28 29 30 31 32 33 34 35 36 37 38 39 40 41 42 43 44 45 46 47 48 49 50 51 52 53 54 55 56 57 58 59 60 61 62 63 64 65 66 67 68 69 70 71 72 73 74 75 76 77 78 79 80 81 82 83 84 85 86 87 88 89 90 91 92 93 94 95 96 97 98 99 100 
>>>>>>> Добавьте файлы проекта.
Z_COORDINATES 1 double
0
POINT_DATA 40000
SCALARS rho double 1
LOOKUP_TABLE default
<<<<<<< HEAD
0.427335 0.427321 0.427308 0.427308 0.427325 0.427366 0.427432 0.427527 0.42765 0.427804 0.427988 0.428204 0.428453 0.428738 0.429061 0.429428 0.429844 0.430321 0.430872 0.431518 0.432284 0.43321 0.434344 0.435757 0.437539 0.439818 0.442758 0.446589 0.451609 0.458224 0.466968 0.478554 0.493917 0.514278 0.54119 0.576587 0.622742 0.682104 0.756851 0.8481 0.954757 1.07247 1.19345 1.30799 1.40737 1.48656 1.54501 1.58548 1.61211 1.62895 1.63923 1.64528 1.64865 1.65035 1.65103 1.65107 1.65072 1.65014 1.64941 1.64859 1.6477 1.6468 1.64586 1.64492 1.64398 1.64303 1.64209 1.64115 1.64021 1.63929 1.63838 1.63748 1.63659 1.63572 1.63486 1.63403 1.63321 1.63242 1.63164 1.63089 1.63017 1.62947 1.6288 1.62817 1.62756 1.62699 1.62645 1.62594 1.62547 1.62504 1.62465 1.6243 1.62398 1.62371 1.62348 1.62329 1.62314 1.62304 1.62297 1.62296 1.62298 1.62305 1.62316 1.62331 1.6235 1.62374 1.62402 1.62434 1.6247 1.6251 1.62553 1.62601 1.62651 1.62706 1.62764 1.62825 1.62889 1.62956 1.63026 1.63099 1.63174 1.63252 1.63331 1.63414 1.63497 1.63584 1.63671 1.6376 1.6385 1.63941 1.64034 1.64127 1.64221 1.64316 1.6441 1.64505 1.64599 1.64692 1.64783 1.6487 1.64952 1.65025 1.65083 1.65117 1.65111 1.65042 1.64868 1.64526 1.63913 1.62873 1.6117 1.58479 1.54395 1.48504 1.40536 1.30556 1.19077 1.06977 0.952245 0.845922 0.755068 0.680712 0.621698 0.575835 0.540674 0.51395 0.493736 0.478488 0.466991 0.458318 0.45176 0.446786 0.442992 0.440082 0.43783 0.436071 0.434678 0.433561 0.432651 0.431898 0.431264 0.430724 0.430255 0.429846 0.429485 0.429166 0.428884 0.428635 0.428417 0.428229 0.42807 0.42794 0.427839 0.427765 0.427717 0.427693 0.427691 0.427706 0.427731 0.427753 0.427316 0.427308 0.427301 0.427306 0.427328 0.427373 0.427442 0.427538 0.427663 0.427818 0.428003 0.42822 0.428469 0.428754 0.429076 0.429442 0.429857 0.430333 0.430882 0.431525 0.432289 0.433211 0.434341 0.435748 0.437523 0.439792 0.442721 0.446536 0.451534 0.458121 0.466827 0.478364 0.493659 0.513929 0.540721 0.575962 0.621916 0.681032 0.755492 0.846441 0.952829 1.07037 1.19133 1.30604 1.40572 1.48528 1.54407 1.58484 1.61169 1.62869 1.63907 1.64519 1.6486 1.65034 1.65103 1.65109 1.65074 1.65017 1.64944 1.64862 1.64774 1.64684 1.64591 1.64497 1.64402 1.64308 1.64214 1.64121 1.64027 1.63936 1.63844 1.63755 1.63666 1.63579 1.63493 1.6341 1.63328 1.63249 1.63172 1.63097 1.63025 1.62956 1.62889 1.62826 1.62765 1.62708 1.62654 1.62604 1.62557 1.62514 1.62474 1.6244 1.62408 1.62381 1.62357 1.62339 1.62324 1.62314 1.62307 1.62306 1.62308 1.62315 1.62325 1.62341 1.6236 1.62384 1.62412 1.62444 1.62479 1.62519 1.62562 1.6261 1.6266 1.62715 1.62772 1.62834 1.62897 1.62965 1.63034 1.63107 1.63182 1.6326 1.63339 1.63421 1.63504 1.6359 1.63677 1.63766 1.63856 1.63948 1.64039 1.64133 1.64226 1.64321 1.64415 1.6451 1.64603 1.64696 1.64786 1.64874 1.64955 1.65028 1.65085 1.65118 1.65111 1.6504 1.64863 1.64516 1.63897 1.62846 1.61127 1.58415 1.54301 1.48376 1.40371 1.30361 1.18866 1.06768 0.950329 0.844276 0.753721 0.679649 0.620879 0.575216 0.540209 0.513604 0.49348 0.478299 0.466852 0.458216 0.451685 0.446732 0.442954 0.440057 0.437814 0.436061 0.434674 0.433562 0.432654 0.431905 0.431273 0.430734 0.430267 0.429859 0.429499 0.429181 0.428898 0.428649 0.428431 0.428242 0.428082 0.427951 0.427847 0.427771 0.42772 0.427692 0.427685 0.427694 0.427711 0.427726 0.427291 0.427288 0.427289 0.427301 0.42733 0.42738 0.427454 0.427555 0.427683 0.42784 0.428026 0.428244 0.428494 0.428778 0.4291 0.429464 0.429877 0.430351 0.430897 0.431536 0.432295 0.433211 0.434332 0.435728 0.437489 0.439741 0.442646 0.44643 0.451387 0.457919 0.466551 0.477989 0.493151 0.513245 0.539802 0.574736 0.620299 0.678933 0.752834 0.843195 0.949056 1.06626 1.18719 1.3022 1.40246 1.48274 1.54222 1.58357 1.61085 1.62816 1.63875 1.645 1.6485 1.65029 1.65102 1.65111 1.65078 1.65022 1.6495 1.64869 1.64782 1.64692 1.64599 1.64506 1.64411 1.64318 1.64224 1.64131 1.64038 1.63946 1.63855 1.63766 1.63678 1.63592 1.63506 1.63423 1.63342 1.63263 1.63186 1.63112 1.6304 1.62971 1.62904 1.62841 1.62781 1.62724 1.6267 1.62621 1.62574 1.62531 1.62492 1.62457 1.62426 1.62399 1.62376 1.62357 1.62342 1.62332 1.62326 1.62324 1.62326 1.62333 1.62344 1.62359 1.62378 1.62402 1.62429 1.62462 1.62497 1.62537 1.62579 1.62627 1.62677 1.62732 1.62788 1.62849 1.62913 1.6298 1.63049 1.63122 1.63196 1.63273 1.63352 1.63434 1.63517 1.63603 1.63689 1.63778 1.63867 1.63958 1.6405 1.64143 1.64236 1.6433 1.64424 1.64518 1.64611 1.64704 1.64794 1.64881 1.64961 1.65033 1.65089 1.6512 1.65111 1.65036 1.64853 1.64497 1.63864 1.62793 1.61043 1.58287 1.54115 1.48121 1.40045 1.29977 1.18452 1.06358 0.946577 0.841051 0.751083 0.677567 0.619276 0.574001 0.539298 0.512926 0.492977 0.477927 0.466578 0.458016 0.45154 0.446627 0.44288 0.440006 0.43778 0.436041 0.434664 0.43356 0.432659 0.431914 0.431287 0.430751 0.430286 0.42988 0.429521 0.429203 0.428921 0.428671 0.428452 0.428262 0.4281 0.427966 0.427859 0.427778 0.427721 0.427687 0.427672 0.427672 0.42768 0.427688 0.427264 0.427265 0.427273 0.427293 0.427329 0.427386 0.427466 0.427572 0.427704 0.427864 0.428053 0.428272 0.428522 0.428807 0.429127 0.429491 0.429902 0.430372 0.430913 0.431548 0.432299 0.433206 0.434316 0.435697 0.437439 0.439664 0.442535 0.446274 0.451171 0.457623 0.466147 0.477439 0.492407 0.512241 0.538454 0.572939 0.617927 0.675853 0.748933 0.838427 0.943507 1.0602 1.18105 1.2965 1.39762 1.47893 1.53945 1.58165 1.60959 1.62736 1.63825 1.64471 1.64834 1.65023 1.65101 1.65114 1.65084 1.65029 1.64958 1.64878 1.64792 1.64703 1.6461 1.64518 1.64424 1.64331 1.64237 1.64145 1.64052 1.63962 1.63871 1.63783 1.63695 1.63609 1.63524 1.63442 1.63361 1.63283 1.63206 1.63132 1.63061 1.62992 1.62926 1.62864 1.62803 1.62747 1.62694 1.62644 1.62598 1.62556 1.62516 1.62482 1.62451 1.62424 1.62401 1.62383 1.62368 1.62358 1.62351 1.6235 1.62352 1.62359 1.62369 1.62385 1.62404 1.62427 1.62454 1.62486 1.62521 1.62561 1.62603 1.62651 1.627 1.62754 1.62811 1.62872 1.62934 1.63001 1.6307 1.63142 1.63216 1.63293 1.63371 1.63453 1.63535 1.6362 1.63706 1.63794 1.63883 1.63974 1.64065 1.64157 1.6425 1.64343 1.64436 1.6453 1.64623 1.64715 1.64804 1.6489 1.6497 1.6504 1.65094 1.65123 1.65109 1.65029 1.64837 1.64469 1.63814 1.62712 1.60916 1.58094 1.53836 1.47739 1.39559 1.29407 1.1784 1.05754 0.941057 0.836314 0.747211 0.674512 0.616923 0.572218 0.537962 0.51193 0.492239 0.477382 0.466177 0.457722 0.451325 0.446472 0.44277 0.439929 0.437729 0.43601 0.434647 0.433555 0.432663 0.431925 0.431302 0.43077 0.430309 0.429905 0.429547 0.42923 0.428947 0.428697 0.428476 0.428284 0.428119 0.427982 0.427869 0.427783 0.427719 0.427677 0.427654 0.427644 0.427644 0.427646 0.427236 0.427241 0.427255 0.427282 0.427326 0.42739 0.427476 0.427587 0.427724 0.427888 0.428079 0.4283 0.428552 0.428836 0.429156 0.429518 0.429927 0.430393 0.43093 0.431558 0.4323 0.433196 0.434291 0.435654 0.43737 0.439563 0.44239 0.446071 0.45089 0.457237 0.46562 0.476724 0.491439 0.510935 0.5367 0.570599 0.614839 0.671843 0.743849 0.832202 0.936242 1.05223 1.17296 1.28894 1.39115 1.47384 1.53571 1.57907 1.60788 1.62627 1.63759 1.64432 1.64813 1.65013 1.65099 1.65117 1.6509 1.65038 1.64969 1.6489 1.64805 1.64716 1.64625 1.64533 1.6444 1.64348 1.64255 1.64163 1.64071 1.63981 1.63891 1.63803 1.63716 1.63631 1.63547 1.63465 1.63385 1.63307 1.63231 1.63158 1.63087 1.63019 1.62953 1.62891 1.62832 1.62776 1.62723 1.62674 1.62628 1.62586 1.62547 1.62513 1.62482 1.62456 1.62433 1.62415 1.624 1.6239 1.62383 1.62382 1.62384 1.62391 1.62401 1.62417 1.62435 1.62459 1.62486 1.62517 1.62552 1.62591 1.62633 1.6268 1.6273 1.62783 1.62839 1.62899 1.62962 1.63028 1.63096 1.63168 1.63241 1.63317 1.63395 1.63476 1.63558 1.63642 1.63727 1.63815 1.63903 1.63993 1.64083 1.64175 1.64267 1.6436 1.64452 1.64546 1.64637 1.64729 1.64817 1.64902 1.6498 1.65049 1.651 1.65126 1.65107 1.65019 1.64816 1.64429 1.63747 1.62602 1.60744 1.57834 1.5346 1.47227 1.38911 1.28651 1.17031 1.04961 0.933827 0.830127 0.742162 0.670533 0.613861 0.569899 0.536223 0.510636 0.491279 0.476673 0.465655 0.457339 0.451046 0.446271 0.442626 0.439828 0.437661 0.435966 0.434622 0.433544 0.432663 0.431933 0.431317 0.43079 0.430332 0.42993 0.429574 0.429257 0.428974 0.428723 0.428501 0.428306 0.428138 0.427995 0.427878 0.427784 0.427713 0.427663 0.427631 0.427613 0.427605 0.427603 0.427208 0.427216 0.427235 0.427269 0.42732 0.42739 0.427483 0.4276 0.427741 0.427909 0.428104 0.428327 0.42858 0.428865 0.429185 0.429545 0.42995 0.430413 0.430944 0.431564 0.432297 0.43318 0.434258 0.435598 0.437285 0.439438 0.442213 0.445823 0.450547 0.456767 0.46498 0.475854 0.490261 0.509346 0.534566 0.567752 0.611079 0.666955 0.737641 0.824581 0.927318 1.0424 1.16291 1.2795 1.38301 1.46739 1.53095 1.57576 1.60569 1.62486 1.63672 1.64381 1.64785 1.65 1.65096 1.6512 1.65098 1.65048 1.64981 1.64904 1.6482 1.64733 1.64643 1.64552 1.64459 1.64368 1.64276 1.64185 1.64094 1.64004 1.63915 1.63828 1.63741 1.63657 1.63574 1.63493 1.63413 1.63336 1.63261 1.63189 1.63118 1.63051 1.62986 1.62924 1.62865 1.6281 1.62758 1.62709 1.62663 1.62622 1.62584 1.6255 1.62519 1.62493 1.6247 1.62452 1.62438 1.62428 1.62422 1.6242 1.62422 1.62429 1.62439 1.62455 1.62473 1.62496 1.62523 1.62554 1.62588 1.62627 1.62669 1.62715 1.62764 1.62817 1.62873 1.62933 1.62994 1.6306 1.63127 1.63198 1.63271 1.63346 1.63423 1.63504 1.63585 1.63668 1.63753 1.6384 1.63927 1.64016 1.64106 1.64197 1.64288 1.6438 1.64472 1.64564 1.64655 1.64745 1.64832 1.64916 1.64993 1.65059 1.65108 1.65129 1.65104 1.65006 1.64787 1.64377 1.63659 1.6246 1.60522 1.57501 1.52982 1.46579 1.38095 1.27706 1.16028 1.03981 0.924944 0.822551 0.735996 0.66568 0.610131 0.567075 0.534107 0.509061 0.490112 0.475811 0.46502 0.456873 0.450707 0.446025 0.44245 0.439704 0.437576 0.43591 0.434589 0.433527 0.432659 0.431939 0.43133 0.430808 0.430354 0.429955 0.4296 0.429284 0.429001 0.428748 0.428523 0.428326 0.428153 0.428006 0.427883 0.427783 0.427704 0.427646 0.427606 0.42758 0.427566 0.427561 0.427181 0.427191 0.427215 0.427254 0.427311 0.427388 0.427487 0.427609 0.427756 0.427928 0.428126 0.428351 0.428606 0.428891 0.42921 0.429569 0.429972 0.43043 0.430956 0.431568 0.43229 0.433158 0.434216 0.435531 0.437183 0.439291 0.442005 0.445533 0.450148 0.45622 0.464234 0.474841 0.488889 0.507494 0.532079 0.564432 0.606692 0.661243 0.730373 0.815632 0.916791 1.03074 1.1509 1.26812 1.37313 1.45949 1.52509 1.57166 1.60295 1.62311 1.63563 1.64316 1.64749 1.64983 1.65091 1.65123 1.65106 1.6506 1.64996 1.64921 1.64838 1.64752 1.64663 1.64573 1.64482 1.64391 1.643 1.6421 1.6412 1.64031 1.63943 1.63856 1.63771 1.63687 1.63605 1.63525 1.63446 1.6337 1.63295 1.63224 1.63154 1.63087 1.63023 1.62962 1.62904 1.6285 1.62797 1.6275 1.62704 1.62664 1.62626 1.62592 1.62562 1.62536 1.62514 1.62496 1.62481 1.62472 1.62465 1.62464 1.62466 1.62473 1.62483 1.62498 1.62516 1.62539 1.62566 1.62597 1.6263 1.62669 1.6271 1.62756 1.62804 1.62857 1.62912 1.6297 1.63031 1.63096 1.63163 1.63233 1.63305 1.6338 1.63456 1.63535 1.63616 1.63699 1.63782 1.63868 1.63955 1.64043 1.64132 1.64222 1.64312 1.64403 1.64494 1.64585 1.64675 1.64764 1.6485 1.64932 1.65007 1.65071 1.65116 1.65132 1.65099 1.64988 1.64751 1.64312 1.6355 1.62283 1.60247 1.57088 1.52392 1.45786 1.37104 1.26567 1.14828 1.02818 0.914464 0.813652 0.728776 0.66001 0.605777 0.563782 0.531641 0.507225 0.488752 0.474807 0.464281 0.456331 0.450311 0.445737 0.442244 0.439558 0.437475 0.435843 0.434547 0.433505 0.432651 0.431941 0.43134 0.430825 0.430374 0.429978 0.429624 0.429308 0.429024 0.42877 0.428543 0.428342 0.428165 0.428013 0.427884 0.427777 0.427692 0.427626 0.427578 0.427546 0.427528 0.427519 0.427153 0.427166 0.427193 0.427237 0.4273 0.427383 0.427487 0.427615 0.427766 0.427942 0.428144 0.428372 0.428628 0.428914 0.429233 0.42959 0.42999 0.430444 0.430963 0.431566 0.432277 0.433129 0.434166 0.435452 0.437067 0.439123 0.441769 0.445205 0.449696 0.455602 0.463392 0.473697 0.48734 0.505403 0.529268 0.560678 0.601725 0.654768 0.722113 0.805426 0.904724 1.01728 1.13692 1.25475 1.36141 1.45004 1.51801 1.56667 1.59961 1.62095 1.63429 1.64236 1.64704 1.64961 1.65083 1.65125 1.65114 1.65073 1.65012 1.64939 1.64859 1.64774 1.64686 1.64597 1.64507 1.64417 1.64327 1.64238 1.64149 1.64061 1.63974 1.63889 1.63804 1.63721 1.63639 1.6356 1.63482 1.63407 1.63333 1.63263 1.63194 1.63129 1.63065 1.63005 1.62947 1.62894 1.62842 1.62795 1.6275 1.6271 1.62673 1.6264 1.6261 1.62584 1.62562 1.62545 1.6253 1.62521 1.62515 1.62513 1.62515 1.62522 1.62532 1.62547 1.62565 1.62588 1.62613 1.62644 1.62677 1.62715 1.62756 1.62801 1.62849 1.62901 1.62955 1.63013 1.63073 1.63137 1.63203 1.63273 1.63343 1.63417 1.63493 1.63571 1.6365 1.63732 1.63815 1.639 1.63986 1.64073 1.64161 1.6425 1.64339 1.6443 1.64519 1.64609 1.64698 1.64786 1.6487 1.64951 1.65023 1.65084 1.65124 1.65134 1.65091 1.64965 1.64705 1.64231 1.63414 1.62065 1.5991 1.56586 1.5168 1.44837 1.35929 1.2523 1.13432 1.01475 0.902449 0.803502 0.720569 0.653581 0.600848 0.560057 0.528853 0.505151 0.487216 0.473673 0.463447 0.455719 0.449864 0.445413 0.44201 0.439392 0.437359 0.435765 0.434497 0.433476 0.432638 0.43194 0.431347 0.430838 0.430392 0.429998 0.429646 0.42933 0.429045 0.42879 0.42856 0.428355 0.428174 0.428017 0.427882 0.427769 0.427677 0.427604 0.42755 0.427512 0.427489 0.427479 0.427126 0.42714 0.42717 0.427219 0.427286 0.427375 0.427485 0.427618 0.427773 0.427954 0.428158 0.428389 0.428647 0.428934 0.429252 0.429608 0.430005 0.430455 0.430967 0.431561 0.432258 0.433093 0.434108 0.435363 0.436936 0.438937 0.441507 0.444842 0.449198 0.45492 0.462462 0.472434 0.48563 0.503095 0.526164 0.55653 0.596232 0.647594 0.712938 0.794042 0.891186 1.00206 1.12097 1.23933 1.34773 1.43889 1.50958 1.56069 1.59557 1.61833 1.63264 1.64137 1.64648 1.64932 1.65073 1.65126 1.65123 1.65087 1.6503 1.6496 1.64881 1.64798 1.64712 1.64624 1.64535 1.64447 1.64357 1.64269 1.64181 1.64095 1.64008 1.63924 1.6384 1.63759 1.63678 1.636 1.63523 1.63449 1.63376 1.63306 1.63238 1.63174 1.63111 1.63052 1.62995 1.62942 1.62892 1.62845 1.62801 1.62761 1.62724 1.62692 1.62662 1.62638 1.62616 1.62599 1.62584 1.62575 1.62569 1.62568 1.62569 1.62576 1.62586 1.62601 1.62618 1.62641 1.62666 1.62696 1.62729 1.62767 1.62807 1.62851 1.62898 1.62949 1.63003 1.6306 1.6312 1.63183 1.63248 1.63316 1.63386 1.63459 1.63533 1.63611 1.63689 1.6377 1.63852 1.63936 1.6402 1.64106 1.64193 1.64281 1.64369 1.64459 1.64547 1.64636 1.64724 1.6481 1.64893 1.64971 1.65041 1.65098 1.65133 1.65134 1.6508 1.64936 1.64648 1.6413 1.63248 1.61801 1.59502 1.55983 1.50832 1.43717 1.34558 1.23687 1.11839 0.999581 0.888971 0.792181 0.711452 0.646457 0.595395 0.555941 0.525774 0.502862 0.485521 0.472422 0.462526 0.455043 0.44937 0.445054 0.441751 0.439208 0.43723 0.435677 0.43444 0.433441 0.432619 0.431934 0.431351 0.430847 0.430406 0.430014 0.429664 0.429348 0.429063 0.428805 0.428573 0.428365 0.42818 0.428017 0.427877 0.427758 0.42766 0.427581 0.427521 0.427478 0.427451 0.427439 0.427098 0.427114 0.427147 0.427199 0.427271 0.427365 0.427479 0.427617 0.427777 0.427961 0.428169 0.428402 0.428662 0.428949 0.429268 0.429622 0.430016 0.430461 0.430966 0.431551 0.432235 0.433052 0.434042 0.435263 0.436792 0.438733 0.441222 0.444449 0.448657 0.454181 0.461456 0.471067 0.483778 0.500594 0.5228 0.552032 0.590269 0.639792 0.70293 0.78157 0.876262 0.985144 1.10305 1.2218 1.33198 1.42588 1.49964 1.55356 1.59071 1.61515 1.63064 1.64015 1.64578 1.64895 1.65058 1.65125 1.65131 1.65102 1.65049 1.64982 1.64906 1.64825 1.6474 1.64654 1.64566 1.64479 1.64391 1.64304 1.64217 1.64131 1.64046 1.63963 1.6388 1.638 1.6372 1.63643 1.63567 1.63494 1.63422 1.63354 1.63287 1.63223 1.63161 1.63103 1.63047 1.62995 1.62945 1.629 1.62856 1.62817 1.62781 1.62749 1.6272 1.62695 1.62674 1.62657 1.62643 1.62634 1.62628 1.62627 1.62628 1.62635 1.62645 1.62659 1.62677 1.62699 1.62724 1.62753 1.62786 1.62823 1.62862 1.62906 1.62952 1.63002 1.63055 1.63111 1.6317 1.63232 1.63296 1.63363 1.63432 1.63504 1.63578 1.63654 1.63731 1.63811 1.63891 1.63974 1.64058 1.64143 1.64228 1.64316 1.64402 1.64491 1.64578 1.64666 1.64751 1.64836 1.64917 1.64993 1.65059 1.65112 1.65141 1.65133 1.65064 1.64899 1.64577 1.64007 1.63046 1.61481 1.59013 1.55265 1.49832 1.42411 1.32979 1.21933 1.1005 0.982714 0.874112 0.779776 0.701506 0.638708 0.589476 0.551478 0.522437 0.500382 0.483685 0.471067 0.461528 0.454311 0.448835 0.444664 0.44147 0.439006 0.437088 0.435579 0.434374 0.4334 0.432596 0.431924 0.43135 0.430853 0.430416 0.430028 0.429678 0.429363 0.429077 0.428817 0.428582 0.428371 0.428182 0.428015 0.427869 0.427745 0.427641 0.427557 0.427492 0.427445 0.427414 0.4274 0.42707 0.427087 0.427123 0.427178 0.427254 0.427352 0.427471 0.427613 0.427777 0.427965 0.428176 0.428412 0.428673 0.428961 0.429279 0.429632 0.430023 0.430463 0.430962 0.431536 0.432206 0.433004 0.433968 0.435155 0.436637 0.438514 0.440918 0.444028 0.44808 0.453392 0.460382 0.469609 0.481803 0.497926 0.519211 0.54723 0.583895 0.631437 0.692181 0.768111 0.86005 0.966598 1.08319 1.2021 1.31403 1.41085 1.488 1.54512 1.58491 1.61133 1.62821 1.63866 1.6449 1.64848 1.65037 1.65121 1.65139 1.65117 1.65068 1.65005 1.64932 1.64853 1.6477 1.64686 1.64599 1.64513 1.64426 1.64341 1.64255 1.64171 1.64087 1.64005 1.63923 1.63844 1.63766 1.6369 1.63615 1.63543 1.63472 1.63405 1.63339 1.63277 1.63216 1.63159 1.63103 1.63052 1.63003 1.62958 1.62916 1.62877 1.62842 1.6281 1.62782 1.62758 1.62736 1.6272 1.62706 1.62697 1.62691 1.6269 1.62692 1.62698 1.62708 1.62722 1.62739 1.62761 1.62785 1.62815 1.62846 1.62883 1.62921 1.62964 1.6301 1.63059 1.63111 1.63166 1.63224 1.63285 1.63348 1.63414 1.63482 1.63553 1.63625 1.637 1.63776 1.63855 1.63934 1.64016 1.64098 1.64182 1.64267 1.64353 1.64438 1.64525 1.64611 1.64697 1.64782 1.64865 1.64943 1.65016 1.65079 1.65127 1.65148 1.65129 1.65043 1.64851 1.64489 1.63857 1.628 1.61095 1.58428 1.54415 1.48661 1.40901 1.3118 1.19962 1.08066 0.964225 0.85797 0.766391 0.690823 0.630409 0.583147 0.546711 0.518876 0.497736 0.481726 0.469621 0.460464 0.45353 0.448263 0.444248 0.441168 0.43879 0.436935 0.435472 0.434302 0.433353 0.432568 0.43191 0.431346 0.430856 0.430423 0.430038 0.42969 0.429374 0.429087 0.428826 0.428588 0.428373 0.42818 0.428009 0.427859 0.42773 0.427621 0.427532 0.427462 0.427411 0.427378 0.427362 0.427041 0.427059 0.427097 0.427156 0.427236 0.427337 0.427461 0.427606 0.427774 0.427965 0.428179 0.428417 0.42868 0.428969 0.429287 0.429638 0.430027 0.430462 0.430953 0.431517 0.432173 0.432951 0.433889 0.435039 0.436471 0.438282 0.440596 0.443584 0.447472 0.452562 0.459252 0.468075 0.479725 0.495119 0.515433 0.542171 0.577174 0.62261 0.680788 0.75378 0.842664 0.946521 1.06141 1.1802 1.29375 1.3936 1.47444 1.53517 1.578 1.60674 1.62526 1.63683 1.64382 1.64788 1.65008 1.65113 1.65144 1.65131 1.65089 1.6503 1.6496 1.64884 1.64802 1.6472 1.64635 1.6455 1.64465 1.64381 1.64296 1.64213 1.6413 1.6405 1.6397 1.63892 1.63814 1.6374 1.63666 1.63595 1.63526 1.6346 1.63395 1.63333 1.63274 1.63218 1.63163 1.63113 1.63065 1.63021 1.62979 1.62941 1.62906 1.62876 1.62848 1.62824 1.62803 1.62787 1.62774 1.62765 1.62759 1.62758 1.6276 1.62766 1.62775 1.62789 1.62806 1.62827 1.62851 1.6288 1.62911 1.62947 1.62985 1.63027 1.63071 1.6312 1.63171 1.63225 1.63282 1.63342 1.63404 1.63469 1.63536 1.63605 1.63676 1.6375 1.63825 1.63902 1.63981 1.64061 1.64142 1.64225 1.64308 1.64392 1.64477 1.64562 1.64647 1.64731 1.64814 1.64895 1.64971 1.65041 1.65099 1.65141 1.65153 1.6512 1.65014 1.6479 1.64379 1.63672 1.62503 1.60632 1.57732 1.53413 1.47298 1.3917 1.29148 1.17771 1.05892 0.94421 0.840662 0.752137 0.6795 0.621641 0.576474 0.54169 0.515127 0.49495 0.479664 0.468099 0.459344 0.452708 0.447661 0.443809 0.44085 0.438561 0.436772 0.435358 0.434224 0.433301 0.432536 0.431891 0.431337 0.430855 0.430427 0.430044 0.429697 0.429382 0.429094 0.428831 0.428591 0.428373 0.428176 0.428001 0.427846 0.427713 0.427599 0.427506 0.427432 0.427378 0.427342 0.427325 0.427012 0.427031 0.427071 0.427133 0.427216 0.427321 0.427448 0.427597 0.427768 0.427962 0.428179 0.428419 0.428683 0.428973 0.429291 0.42964 0.430026 0.430456 0.43094 0.431494 0.432135 0.432893 0.433803 0.434916 0.436297 0.438039 0.440259 0.443122 0.446838 0.451697 0.458076 0.466478 0.477563 0.492198 0.511502 0.536905 0.570171 0.613396 0.66886 0.738701 0.824241 0.925031 1.03781 1.15608 1.27104 1.37394 1.45873 1.52347 1.56977 1.60121 1.62168 1.63459 1.64247 1.64711 1.6497 1.65099 1.65146 1.65144 1.65109 1.65056 1.64989 1.64916 1.64837 1.64756 1.64673 1.6459 1.64506 1.64423 1.6434 1.64258 1.64177 1.64097 1.64019 1.63942 1.63866 1.63793 1.6372 1.63651 1.63583 1.63518 1.63454 1.63394 1.63335 1.6328 1.63227 1.63177 1.6313 1.63087 1.63046 1.63009 1.62975 1.62945 1.62917 1.62894 1.62874 1.62858 1.62845 1.62836 1.62831 1.62829 1.62831 1.62837 1.62846 1.6286 1.62876 1.62897 1.62921 1.62949 1.62979 1.63014 1.63052 1.63093 1.63137 1.63184 1.63234 1.63288 1.63343 1.63402 1.63463 1.63527 1.63592 1.63661 1.6373 1.63803 1.63877 1.63953 1.64029 1.64109 1.64188 1.6427 1.64351 1.64434 1.64517 1.64601 1.64684 1.64767 1.64848 1.64927 1.65 1.65066 1.6512 1.65154 1.65155 1.65106 1.64974 1.64713 1.64242 1.63445 1.62141 1.60074 1.56903 1.52236 1.45718 1.37196 1.26872 1.1536 1.03536 0.922792 0.822321 0.73714 0.667645 0.612488 0.56952 0.536463 0.511226 0.492053 0.47752 0.466516 0.458178 0.451851 0.447033 0.443351 0.440517 0.438321 0.4366 0.435237 0.43414 0.433245 0.432499 0.431869 0.431325 0.43085 0.430427 0.430047 0.429701 0.429387 0.429098 0.428833 0.42859 0.42837 0.42817 0.427991 0.427832 0.427694 0.427576 0.427479 0.427402 0.427344 0.427307 0.427288 0.426982 0.427003 0.427044 0.427108 0.427194 0.427302 0.427433 0.427585 0.42776 0.427957 0.428176 0.428418 0.428683 0.428974 0.429291 0.429639 0.430022 0.430447 0.430924 0.431467 0.432093 0.432831 0.433712 0.434787 0.436116 0.437787 0.439911 0.442643 0.446184 0.450806 0.456864 0.464834 0.475337 0.489193 0.507457 0.531484 0.562954 0.603884 0.656509 0.723012 0.804933 0.90228 1.01248 1.12978 1.24581 1.35168 1.44062 1.50976 1.56 1.59456 1.61733 1.63183 1.64079 1.64614 1.64918 1.65077 1.65145 1.65155 1.65129 1.65082 1.65019 1.64949 1.64873 1.64794 1.64713 1.64632 1.64549 1.64468 1.64386 1.64306 1.64226 1.64148 1.6407 1.63995 1.63921 1.63849 1.63778 1.63709 1.63642 1.63579 1.63516 1.63457 1.634 1.63346 1.63294 1.63245 1.63199 1.63157 1.63117 1.6308 1.63047 1.63017 1.62991 1.62968 1.62948 1.62932 1.6292 1.62911 1.62906 1.62905 1.62906 1.62912 1.62921 1.62935 1.62951 1.62971 1.62994 1.63022 1.63051 1.63086 1.63122 1.63163 1.63205 1.63252 1.63301 1.63353 1.63408 1.63465 1.63525 1.63588 1.63652 1.63719 1.63787 1.63859 1.63931 1.64006 1.64081 1.64159 1.64237 1.64317 1.64397 1.64479 1.6456 1.64643 1.64724 1.64805 1.64884 1.6496 1.6503 1.65092 1.65139 1.65164 1.65153 1.65084 1.64922 1.64614 1.64072 1.63167 1.61702 1.59404 1.55918 1.50856 1.43898 1.34963 1.24346 1.1273 1.01008 0.900119 0.803101 0.721536 0.655369 0.603038 0.562353 0.53108 0.50721 0.48907 0.475312 0.464886 0.456977 0.450968 0.446386 0.442878 0.440173 0.438072 0.436421 0.43511 0.434051 0.433183 0.432459 0.431843 0.43131 0.430842 0.430423 0.430046 0.429702 0.429388 0.429098 0.428832 0.428587 0.428364 0.428161 0.427978 0.427816 0.427674 0.427553 0.427452 0.427371 0.427311 0.427272 0.427252 0.426951 0.426973 0.427017 0.427083 0.427171 0.427282 0.427415 0.427571 0.427748 0.427948 0.428169 0.428413 0.42868 0.428971 0.429288 0.429635 0.430014 0.430435 0.430904 0.431436 0.432047 0.432764 0.433617 0.434652 0.435928 0.437527 0.439554 0.442154 0.445516 0.449896 0.455627 0.463157 0.473068 0.48613 0.503335 0.525958 0.555593 0.594165 0.643852 0.706859 0.784909 0.878442 0.985575 1.10136 1.21803 1.32666 1.41985 1.49375 1.5484 1.58657 1.61204 1.62844 1.63868 1.64489 1.6485 1.65046 1.65137 1.65163 1.65148 1.65107 1.6505 1.64984 1.6491 1.64834 1.64755 1.64675 1.64595 1.64515 1.64435 1.64356 1.64277 1.64201 1.64125 1.64051 1.63978 1.63907 1.63837 1.63771 1.63705 1.63642 1.63581 1.63523 1.63467 1.63414 1.63363 1.63316 1.63271 1.63229 1.6319 1.63155 1.63122 1.63093 1.63067 1.63045 1.63025 1.6301 1.62998 1.6299 1.62984 1.62983 1.62985 1.62991 1.62999 1.63012 1.63028 1.63048 1.63071 1.63097 1.63127 1.6316 1.63196 1.63235 1.63277 1.63323 1.6337 1.63422 1.63475 1.63532 1.6359 1.63651 1.63714 1.6378 1.63847 1.63917 1.63988 1.64061 1.64135 1.64211 1.64288 1.64367 1.64446 1.64526 1.64606 1.64686 1.64766 1.64845 1.64921 1.64995 1.65061 1.65118 1.65157 1.65172 1.65144 1.65051 1.64852 1.64488 1.6386 1.62824 1.61168 1.58598 1.54749 1.49245 1.41811 1.32454 1.21564 1.09891 0.983238 0.876368 0.783171 0.705471 0.642788 0.593382 0.555041 0.525594 0.503118 0.486031 0.473061 0.463222 0.45575 0.450066 0.445724 0.442393 0.43982 0.437816 0.436237 0.434978 0.433958 0.433118 0.432414 0.431814 0.431291 0.43083 0.430417 0.430043 0.4297 0.429386 0.429095 0.428828 0.428581 0.428355 0.428149 0.427964 0.427798 0.427653 0.427528 0.427424 0.427341 0.427279 0.427237 0.427217 0.42692 0.426943 0.426988 0.427056 0.427147 0.42726 0.427396 0.427554 0.427735 0.427937 0.42816 0.428406 0.428674 0.428965 0.429282 0.429627 0.430003 0.430419 0.43088 0.431402 0.431998 0.432693 0.433518 0.434514 0.435736 0.437262 0.43919 0.441657 0.444838 0.448974 0.454376 0.461462 0.470776 0.483037 0.499172 0.520378 0.548154 0.58433 0.631009 0.690394 0.764356 0.853724 0.957291 1.07097 1.18769 1.29873 1.39615 1.47511 1.53467 1.57697 1.60559 1.62426 1.63606 1.6433 1.64759 1.65 1.6512 1.65166 1.65164 1.65132 1.65081 1.65019 1.64949 1.64875 1.64798 1.64721 1.64642 1.64564 1.64485 1.64408 1.64331 1.64256 1.64181 1.64109 1.64037 1.63968 1.639 1.63834 1.6377 1.63709 1.63649 1.63592 1.63537 1.63486 1.63436 1.6339 1.63345 1.63305 1.63267 1.63232 1.632 1.63172 1.63146 1.63125 1.63106 1.63091 1.63079 1.63071 1.63065 1.63064 1.63066 1.63072 1.6308 1.63093 1.63108 1.63128 1.6315 1.63176 1.63205 1.63237 1.63272 1.63311 1.63352 1.63396 1.63443 1.63493 1.63545 1.636 1.63657 1.63718 1.63779 1.63844 1.63909 1.63978 1.64047 1.64119 1.64192 1.64266 1.64342 1.64419 1.64496 1.64575 1.64653 1.64732 1.64809 1.64886 1.6496 1.6503 1.65091 1.65142 1.65173 1.65175 1.65127 1.65005 1.64761 1.64327 1.63594 1.62402 1.60517 1.57629 1.53366 1.4737 1.39432 1.29654 1.18528 1.06854 0.955026 0.851743 0.762716 0.689097 0.630023 0.58361 0.547653 0.520053 0.498986 0.48296 0.470786 0.461541 0.45451 0.449152 0.445053 0.441901 0.43946 0.437554 0.436047 0.434842 0.433861 0.43305 0.432367 0.431781 0.431269 0.430815 0.430407 0.430036 0.429695 0.429381 0.42909 0.