# vtk DataFile Version 3.0
Immiscible displacement
ASCII
DATASET RECTILINEAR_GRID
DIMENSIONS 200 200 1
X_COORDINATES 200 double
1 2 3 4 5 6 7 8 9 10 11 12 13 14 15 16 17 18 19 20 21 22 23 24 25 26 27 28 29 30 31 32 33 34 35 36 37 38 39 40 41 42 43 44 45 46 47 48 49 50 51 52 53 54 55 56 57 58 59 60 61 62 63 64 65 66 67 68 69 70 71 72 73 74 75 76 77 78 79 80 81 82 83 84 85 86 87 88 89 90 91 92 93 94 95 96 97 98 99 100 101 102 103 104 105 106 107 108 109 110 111 112 113 114 115 116 117 118 119 120 121 122 123 124 125 126 127 128 129 130 131 132 133 134 135 136 137 138 139 140 141 142 143 144 145 146 147 148 149 150 151 152 153 154 155 156 157 158 159 160 161 162 163 164 165 166 167 168 169 170 171 172 173 174 175 176 177 178 179 180 181 182 183 184 185 186 187 188 189 190 191 192 193 194 195 196 197 198 199 200 
Y_COORDINATES 200 double
1 2 3 4 5 6 7 8 9 10 11 12 13 14 15 16 17 18 19 20 21 22 23 24 25 26 27 28 29 30 31 32 33 34 35 36 37 38 39 40 41 42 43 44 45 46 47 48 49 50 51 52 53 54 55 56 57 58 59 60 61 62 63 64 65 66 67 68 69 70 71 72 73 74 75 76 77 78 79 80 81 82 83 84 85 86 87 88 89 90 91 92 93 94 95 96 97 98 99 100 101 102 103 104 105 106 107 108 109 110 111 112 113 114 115 116 117 118 119 120 121 122 123 124 125 126 127 128 129 130 131 132 133 134 135 136 137 138 139 140 141 142 143 144 145 146 147 148 149 150 151 152 153 154 155 156 157 158 159 160 161 162 163 164 165 166 167 168 169 170 171 172 173 174 175 176 177 178 179 180 181 182 183 184 185 186 187 188 189 190 191 192 193 194 195 196 197 198 199 200 
Z_COORDINATES 1 double
0
POINT_DATA 40000
SCALARS rho double 1
LOOKUP_TABLE default
0.456819 0.456759 0.456622 0.456392 0.456053 0.455596 0.455017 0.454317 0.453503 0.452587 0.451578 0.450498 0.449359 0.448187 0.446999 0.445823 0.444679 0.4436 0.442614 0.44176 0.441077 0.440623 0.440456 0.440665 0.44135 0.442656 0.444758 0.447904 0.452407 0.458697 0.467329 0.479057 0.49485 0.515985 0.544073 0.581118 0.629439 0.691495 0.769354 0.863858 0.973401 1.09298 1.21423 1.32734 1.42397 1.49989 1.55525 1.59325 1.61812 1.63383 1.64346 1.64918 1.65243 1.65415 1.65491 1.65508 1.65487 1.65443 1.65381 1.6531 1.6523 1.65146 1.65055 1.64961 1.64861 1.64759 1.64651 1.6454 1.64424 1.64304 1.64178 1.64047 1.6391 1.63767 1.63616 1.63459 1.63293 1.6312 1.62937 1.62747 1.62546 1.62337 1.62117 1.61891 1.61655 1.61415 1.61168 1.6092 1.6067 1.60423 1.60182 1.59952 1.59734 1.59535 1.59358 1.59207 1.59085 1.58996 1.58941 1.58924 1.58941 1.58996 1.59085 1.59207 1.59358 1.59535 1.59734 1.59952 1.60182 1.60423 1.6067 1.6092 1.61168 1.61415 1.61655 1.61891 1.62117 1.62337 1.62546 1.62747 1.62937 1.6312 1.63293 1.63459 1.63616 1.63767 1.6391 1.64047 1.64178 1.64304 1.64424 1.6454 1.64651 1.64758 1.64861 1.6496 1.65054 1.65145 1.6523 1.6531 1.65381 1.65442 1.65487 1.65508 1.65491 1.65416 1.65244 1.64919 1.64347 1.63386 1.61815 1.59328 1.5553 1.49995 1.42404 1.3274 1.21429 1.09301 0.973401 0.863818 0.76927 0.691362 0.629255 0.58088 0.543777 0.515626 0.494423 0.478558 0.466752 0.458037 0.451661 0.44707 0.443833 0.44164 0.440244 0.439471 0.439178 0.439266 0.439648 0.440268 0.441069 0.442015 0.443066 0.444196 0.445374 0.446578 0.447783 0.44897 0.450115 0.451201 0.452207 0.453121 0.453925 0.454612 0.455173 0.455607 0.455918 0.456118 0.456224 0.456262 0.456806 0.456742 0.456599 0.456363 0.456017 0.455556 0.454974 0.454276 0.453463 0.452552 0.451548 0.450476 0.449344 0.448182 0.447001 0.445834 0.444696 0.443626 0.442644 0.441797 0.441116 0.440665 0.440497 0.440705 0.441383 0.442681 0.444768 0.447897 0.45237 0.458625 0.467206 0.478869 0.494569 0.515586 0.543513 0.580352 0.628407 0.690143 0.767631 0.861756 0.970968 1.09036 1.21162 1.32496 1.42199 1.49836 1.55414 1.59248 1.6176 1.63348 1.64321 1.649 1.65229 1.65404 1.65481 1.655 1.65478 1.65434 1.65373 1.65302 1.65222 1.65137 1.65046 1.64952 1.64852 1.6475 1.64642 1.64532 1.64415 1.64296 1.64169 1.6404 1.63902 1.63761 1.6361 1.63455 1.6329 1.63119 1.62937 1.62749 1.6255 1.62344 1.62127 1.61905 1.61673 1.61437 1.61194 1.60951 1.60705 1.60465 1.60228 1.60003 1.5979 1.59596 1.59422 1.59276 1.59156 1.5907 1.59016 1.58999 1.59016 1.5907 1.59156 1.59276 1.59422 1.59596 1.5979 1.60003 1.60228 1.60465 1.60705 1.60951 1.61194 1.61437 1.61673 1.61905 1.62128 1.62344 1.6255 1.62749 1.62937 1.63119 1.6329 1.63455 1.6361 1.63761 1.63902 1.6404 1.64169 1.64296 1.64415 1.64532 1.64642 1.6475 1.64852 1.64952 1.65045 1.65137 1.65221 1.65302 1.65372 1.65434 1.65478 1.655 1.65481 1.65405 1.6523 1.64902 1.64323 1.63351 1.61763 1.59252 1.55419 1.49842 1.42205 1.32503 1.21168 1.09038 0.970961 0.861708 0.767538 0.690001 0.628215 0.580106 0.543208 0.515218 0.494134 0.478361 0.466621 0.457957 0.451617 0.447055 0.443837 0.44166 0.440273 0.439507 0.439217 0.439307 0.439688 0.440307 0.441104 0.442046 0.44309 0.444214 0.445384 0.446582 0.447778 0.448959 0.450095 0.451176 0.452177 0.453088 0.453891 0.45458 0.455143 0.455585 0.455904 0.456115 0.456232 0.45628 0.456789 0.456722 0.456572 0.456326 0.455972 0.455505 0.454919 0.454221 0.453411 0.452506 0.45151 0.450448 0.449327 0.448177 0.447008 0.445854 0.444728 0.443668 0.442694 0.441854 0.441178 0.440728 0.440558 0.440759 0.441425 0.442705 0.444764 0.447854 0.452275 0.458458 0.466943 0.478475 0.494002 0.514787 0.542409 0.578851 0.626402 0.687522 0.764304 0.8577 0.96628 1.08529 1.20658 1.32035 1.41813 1.49537 1.55197 1.59098 1.61658 1.6328 1.64274 1.64868 1.65205 1.65385 1.65465 1.65485 1.65464 1.65421 1.6536 1.65289 1.65209 1.65124 1.65032 1.64939 1.64839 1.64737 1.64629 1.64519 1.64402 1.64284 1.64158 1.64029 1.63893 1.63752 1.63603 1.6345 1.63287 1.63119 1.6294 1.62755 1.6256 1.62359 1.62147 1.61931 1.61705 1.61476 1.6124 1.61005 1.60767 1.60535 1.60307 1.6009 1.59885 1.59699 1.59532 1.59391 1.59276 1.59194 1.59142 1.59126 1.59142 1.59194 1.59276 1.59391 1.59532 1.59699 1.59885 1.6009 1.60307 1.60535 1.60767 1.61005 1.6124 1.61476 1.61705 1.61931 1.62147 1.62359 1.6256 1.62755 1.6294 1.63119 1.63287 1.6345 1.63603 1.63752 1.63893 1.64029 1.64158 1.64284 1.64402 1.64519 1.64628 1.64736 1.64838 1.64938 1.65032 1.65124 1.65208 1.65289 1.6536 1.65421 1.65465 1.65485 1.65465 1.65386 1.65206 1.64869 1.64276 1.63283 1.61661 1.59102 1.55202 1.49543 1.41819 1.32041 1.20662 1.08531 0.966261 0.857638 0.764197 0.687366 0.626196 0.57859 0.54209 0.514405 0.493553 0.477953 0.466344 0.457777 0.45151 0.447001 0.443823 0.441674 0.440307 0.439556 0.439274 0.439369 0.439751 0.440368 0.44116 0.442095 0.443131 0.444246 0.445405 0.446593 0.447778 0.448948 0.450074 0.451147 0.452141 0.453049 0.453851 0.454542 0.455113 0.455564 0.455897 0.456124 0.456255 0.456311 0.456783 0.456712 0.456554 0.456299 0.455936 0.455461 0.454871 0.454171 0.453364 0.452464 0.451477 0.450425 0.449317 0.44818 0.447025 0.445883 0.44477 0.443721 0.442757 0.441923 0.44125 0.440799 0.440623 0.440813 0.44146 0.44271 0.444729 0.447762 0.452106 0.458185 0.46653 0.477876 0.493153 0.513606 0.54079 0.576663 0.62349 0.683725 0.759492 0.851835 0.959493 1.07794 1.19922 1.3136 1.41244 1.49095 1.54875 1.58874 1.61507 1.6318 1.64207 1.64821 1.65171 1.6536 1.65444 1.65467 1.65448 1.65406 1.65345 1.65274 1.65194 1.65109 1.65017 1.64924 1.64824 1.64722 1.64614 1.64505 1.64389 1.64271 1.64146 1.64018 1.63883 1.63744 1.63597 1.63446 1.63286 1.63121 1.62946 1.62767 1.62576 1.62381 1.62176 1.61966 1.61749 1.61528 1.61302 1.61076 1.60849 1.60627 1.60409 1.60203 1.60008 1.59831 1.59673 1.5954 1.59431 1.59353 1.59304 1.59288 1.59304 1.59353 1.59431 1.5954 1.59673 1.59831 1.60008 1.60203 1.60409 1.60627 1.60849 1.61076 1.61302 1.61528 1.61749 1.61966 1.62176 1.62381 1.62576 1.62767 1.62946 1.63121 1.63286 1.63446 1.63597 1.63744 1.63883 1.64018 1.64145 1.64271 1.64388 1.64504 1.64614 1.64722 1.64823 1.64923 1.65017 1.65109 1.65193 1.65274 1.65344 1.65406 1.65448 1.65467 1.65445 1.6536 1.65172 1.64823 1.64209 1.63182 1.6151 1.58878 1.5488 1.49101 1.4125 1.31365 1.19925 1.07795 0.959458 0.851756 0.759368 0.683552 0.623266 0.576384 0.540453 0.513206 0.492685 0.477335 0.465913 0.457487 0.451324 0.446894 0.443774 0.441667 0.440331 0.439601 0.439334 0.439437 0.439823 0.440439 0.441227 0.442157 0.443184 0.444289 0.445437 0.446613 0.447786 0.448945 0.450061 0.451125 0.452114 0.453019 0.453821 0.454518 0.455097 0.455561 0.455909 0.456151 0.456296 0.45636 0.456797 0.456722 0.456557 0.456292 0.455919 0.455436 0.45484 0.454138 0.453331 0.452436 0.451456 0.450414 0.449318 0.448193 0.447051 0.445923 0.444821 0.443782 0.442826 0.441997 0.441324 0.44087 0.440683 0.440856 0.441476 0.442688 0.444653 0.447613 0.451858 0.457804 0.46597 0.477077 0.492036 0.512066 0.538692 0.57384 0.619745 0.678852 0.753319 0.844302 0.950756 1.06845 1.18967 1.30477 1.40497 1.48511 1.54447 1.58576 1.61306 1.63046 1.64118 1.64761 1.65129 1.65329 1.6542 1.65447 1.6543 1.6539 1.65329 1.65259 1.65179 1.65094 1.65002 1.64909 1.64809 1.64707 1.646 1.64491 1.64376 1.64259 1.64135 1.64008 1.63875 1.63738 1.63594 1.63446 1.63289 1.63128 1.62958 1.62783 1.62599 1.6241 1.62212 1.62011 1.61802 1.61591 1.61375 1.61161 1.60945 1.60735 1.60529 1.60334 1.6015 1.59984 1.59835 1.5971 1.59608 1.59535 1.59489 1.59474 1.59489 1.59535 1.59608 1.5971 1.59835 1.59984 1.6015 1.60334 1.60529 1.60735 1.60945 1.61161 1.61375 1.61591 1.61802 1.62011 1.62212 1.6241 1.62599 1.62783 1.62958 1.63128 1.63289 1.63446 1.63594 1.63738 1.63875 1.64008 1.64134 1.64258 1.64375 1.64491 1.646 1.64707 1.64808 1.64908 1.65002 1.65094 1.65178 1.65259 1.65329 1.6539 1.65431 1.65448 1.65421 1.6533 1.65131 1.64763 1.6412 1.63049 1.6131 1.5858 1.54452 1.48516 1.40502 1.30481 1.18969 1.06843 0.950704 0.844205 0.753176 0.678659 0.619501 0.57354 0.538335 0.511645 0.491547 0.476516 0.465333 0.457086 0.451057 0.446727 0.443682 0.441631 0.440335 0.439634 0.439387 0.439503 0.439896 0.440515 0.441301 0.442226 0.443246 0.444342 0.445479 0.446644 0.447806 0.448955 0.450062 0.451119 0.452103 0.453007 0.453812 0.454515 0.455105 0.455583 0.455947 0.456205 0.456362 0.456434 0.456838 0.456759 0.456585 0.45631 0.455927 0.455435 0.454832 0.454127 0.45332 0.452427 0.451453 0.45042 0.449333 0.448219 0.447089 0.445971 0.444879 0.443849 0.442898 0.44207 0.441396 0.440934 0.440733 0.440882 0.441468 0.442633 0.444533 0.447404 0.45153 0.457316 0.465269 0.47609 0.49067 0.510196 0.536158 0.570442 0.615247 0.673004 0.745907 0.835241 0.94021 1.05692 1.178 1.29392 1.39571 1.47782 1.5391 1.58201 1.61053 1.62879 1.64008 1.64688 1.65079 1.65293 1.65393 1.65426 1.65412 1.65373 1.65314 1.65244 1.65164 1.6508 1.64988 1.64895 1.64795 1.64694 1.64587 1.64479 1.64364 1.64248 1.64126 1.64001 1.63869 1.63735 1.63593 1.63449 1.63296 1.63139 1.62974 1.62805 1.62627 1.62445 1.62256 1.62063 1.61864 1.61664 1.61459 1.61256 1.61052 1.60854 1.60661 1.60479 1.60306 1.60151 1.60012 1.59895 1.598 1.59732 1.59689 1.59676 1.59689 1.59732 1.598 1.59895 1.60012 1.60151 1.60306 1.60479 1.60661 1.60854 1.61052 1.61256 1.61459 1.61664 1.61864 1.62063 1.62256 1.62445 1.62627 1.62805 1.62974 1.63139 1.63296 1.63449 1.63593 1.63735 1.63869 1.64001 1.64125 1.64248 1.64364 1.64479 1.64587 1.64694 1.64795 1.64895 1.64988 1.6508 1.65164 1.65244 1.65313 1.65373 1.65412 1.65426 1.65394 1.65294 1.6508 1.64689 1.6401 1.62881 1.61057 1.58205 1.53915 1.47787 1.39575 1.29395 1.17801 1.0569 0.940141 0.835126 0.745744 0.672791 0.614983 0.570121 0.53578 0.509754 0.49016 0.475508 0.46461 0.456577 0.450709 0.446498 0.443543 0.441559 0.440314 0.439649 0.439427 0.439561 0.439964 0.440588 0.441376 0.442298 0.443313 0.444402 0.445531 0.446687 0.44784 0.44898 0.450081 0.451133 0.452115 0.453019 0.453829 0.45454 0.455141 0.455634 0.456013 0.456286 0.456456 0.456535 0.456909 0.456825 0.456643 0.456358 0.455963 0.455462 0.454852 0.454142 0.453333 0.452441 0.451471 0.450443 0.449364 0.448259 0.447137 0.446028 0.444943 0.443918 0.44297 0.442142 0.441461 0.440988 0.440768 0.440888 0.441434 0.442543 0.444366 0.447135 0.451124 0.456727 0.464437 0.474933 0.489079 0.50803 0.533234 0.56653 0.610078 0.666285 0.737382 0.824792 0.927995 1.0435 1.1643 1.28106 1.38464 1.46903 1.5326 1.57744 1.60744 1.62674 1.63873 1.64599 1.6502 1.65252 1.65363 1.65403 1.65393 1.65357 1.65299 1.65231 1.65151 1.65067 1.64976 1.64883 1.64784 1.64683 1.64577 1.64469 1.64356 1.64241 1.6412 1.63997 1.63868 1.63736 1.63597 1.63456 1.63307 1.63155 1.62995 1.62832 1.62661 1.62487 1.62306 1.62122 1.61933 1.61743 1.61549 1.61358 1.61167 1.60982 1.60801 1.60631 1.6047 1.60326 1.60197 1.60089 1.60001 1.59938 1.59899 1.59887 1.59899 1.59938 1.60001 1.60089 1.60197 1.60326 1.6047 1.60631 1.60801 1.60982 1.61167 1.61358 1.61549 1.61743 1.61933 1.62122 1.62306 1.62487 1.62661 1.62832 1.62995 1.63155 1.63307 1.63456 1.63597 1.63736 1.63867 1.63997 1.6412 1.64241 1.64355 1.64469 1.64576 1.64683 1.64783 1.64883 1.64976 1.65067 1.65151 1.65231 1.65299 1.65357 1.65394 1.65403 1.65364 1.65253 1.65021 1.64601 1.63876 1.62677 1.60748 1.57748 1.53264 1.46908 1.38468 1.28109 1.16429 1.04345 0.927908 0.824658 0.7372 0.666052 0.609793 0.56619 0.532834 0.507566 0.488547 0.474328 0.463756 0.455966 0.450282 0.44621 0.443358 0.441452 0.440264 0.439642 0.439451 0.439607 0.440025 0.440658 0.441449 0.442372 0.443385 0.444469 0.445592 0.446742 0.447888 0.449022 0.450118 0.451168 0.452149 0.453057 0.453872 0.454593 0.455207 0.455714 0.456109 0.456397 0.456579 0.456666 0.457012 0.456922 0.456731 0.456435 0.456029 0.455518 0.454899 0.454182 0.45337 0.452477 0.451509 0.450484 0.44941 0.448311 0.447195 0.446092 0.445012 0.443989 0.443041 0.442208 0.441519 0.44103 0.440786 0.440873 0.441373 0.442417 0.444156 0.44681 0.450647 0.456047 0.463486 0.473621 0.487288 0.505602 0.529967 0.562169 0.604319 0.658798 0.727869 0.813093 0.914248 1.02828 1.14863 1.26621 1.37172 1.45868 1.52487 1.57198 1.60374 1.62429 1.63713 1.64494 1.6495 1.65205 1.6533 1.65378 1.65374 1.65341 1.65285 1.65218 1.6514 1.65057 1.64966 1.64873 1.64775 1.64675 1.64569 1.64462 1.6435 1.64237 1.64117 1.63997 1.63869 1.63741 1.63605 1.63467 1.63323 1.63175 1.63021 1.62864 1.627 1.62534 1.62361 1.62187 1.62008 1.61828 1.61646 1.61467 1.61288 1.61115 1.60947 1.60789 1.6064 1.60507 1.60388 1.60288 1.60207 1.6015 1.60113 1.60102 1.60113 1.6015 1.60207 1.60288 1.60388 1.60507 1.6064 1.60789 1.60947 1.61115 1.61288 1.61467 1.61646 1.61828 1.62008 1.62187 1.62361 1.62534 1.627 1.62864 1.63021 1.63175 1.63322 1.63467 1.63605 1.6374 1.63869 1.63996 1.64117 1.64236 1.6435 1.64462 1.64569 1.64674 1.64774 1.64873 1.64966 1.65056 1.6514 1.65218 1.65285 1.65341 1.65375 1.65379 1.65331 1.65206 1.64951 1.64496 1.63715 1.62432 1.60377 1.57202 1.52491 1.45872 1.37176 1.26623 1.14861 1.02822 0.914145 0.812942 0.727668 0.658546 0.604015 0.561808 0.529547 0.505117 0.486734 0.472994 0.462783 0.455264 0.449783 0.445864 0.443128 0.441308 0.440186 0.439613 0.439458 0.439639 0.440076 0.440721 0.44152 0.442446 0.443459 0.444542 0.445662 0.446807 0.44795 0.44908 0.450174 0.451224 0.452207 0.453119 0.453943 0.454674 0.455301 0.455822 0.456233 0.456536 0.456731 0.456824 0.457144 0.457048 0.456847 0.45654 0.456123 0.455601 0.454972 0.454248 0.453431 0.452536 0.451567 0.450543 0.449471 0.448375 0.447263 0.446162 0.445084 0.444061 0.443109 0.442269 0.441568 0.441059 0.440788 0.440837 0.441284 0.442259 0.443904 0.446433 0.450104 0.455284 0.46243 0.472175 0.485322 0.502948 0.526405 0.557421 0.598053 0.650647 0.717491 0.800284 0.89911 1.01138 1.13106 1.24937 1.3569 1.44666 1.51581 1.56554 1.59935 1.62138 1.63523 1.6437 1.64869 1.65151 1.65294 1.65352 1.65355 1.65326 1.65273 1.65208 1.6513 1.65048 1.64958 1.64866 1.64768 1.64669 1.64564 1.64459 1.64348 1.64236 1.64119 1.64 1.63875 1.63749 1.63617 1.63483 1.63343 1.63201 1.63052 1.62901 1.62744 1.62585 1.62421 1.62256 1.62087 1.61918 1.61747 1.6158 1.61412 1.61252 1.61096 1.6095 1.60812 1.60689 1.6058 1.60488 1.60414 1.60361 1.60327 1.60317 1.60327 1.60361 1.60414 1.60488 1.6058 1.60689 1.60812 1.6095 1.61096 1.61252 1.61413 1.6158 1.61747 1.61918 1.62087 1.62256 1.62421 1.62585 1.62744 1.62901 1.63052 1.63201 1.63343 1.63483 1.63617 1.63749 1.63875 1.64 1.64118 1.64236 1.64348 1.64459 1.64564 1.64669 1.64768 1.64866 1.64958 1.65048 1.6513 1.65208 1.65273 1.65326 1.65356 1.65353 1.65294 1.65152 1.64871 1.64372 1.63525 1.62141 1.59938 1.56559 1.51586 1.44671 1.35693 1.24937 1.13103 1.01131 0.898991 0.800116 0.717273 0.650377 0.597731 0.557041 0.525964 0.502442 0.484748 0.471526 0.461705 0.454479 0.449219 0.445466 0.442856 0.441131 0.440081 0.439561 0.439447 0.439658 0.440116 0.440776 0.441586 0.442518 0.443535 0.444618 0.445738 0.446882 0.448024 0.449154 0.450248 0.451299 0.452287 0.453206 0.454038 0.45478 0.455421 0.455958 0.456384 0.456701 0.456908 0.457009 0.457303 0.457201 0.456991 0.456672 0.456243 0.455709 0.455071 0.454338 0.453515 0.452615 0.451643 0.450618 0.449547 0.448451 0.44734 0.446239 0.445159 0.444133 0.443174 0.442324 0.441607 0.441075 0.440774 0.44078 0.44117 0.442069 0.443613 0.446009 0.449504 0.454449 0.461283 0.470613 0.483209 0.500103 0.522594 0.552348 0.591361 0.641933 0.706371 0.786503 0.88272 0.992928 1.11167 1.23054 1.34011 1.43288 1.50531 1.55801 1.59418 1.61794 1.63298 1.64225 1.64775 1.65089 1.65253 1.65324 1.65336 1.65312 1.65262 1.65199 1.65123 1.65042 1.64953 1.64862 1.64765 1.64667 1.64563 1.64459 1.64349 1.64239 1.64123 1.64007 1.63885 1.63762 1.63633 1.63503 1.63368 1.6323 1.63087 1.62943 1.62793 1.62642 1.62486 1.6233 1.6217 1.62012 1.61852 1.61695 1.6154 1.61391 1.61246 1.61111 1.60985 1.60872 1.60771 1.60688 1.60619 1.60571 1.6054 1.60531 1.6054 1.60571 1.60619 1.60688 1.60771 1.60872 1.60985 1.61112 1.61246 1.61391 1.6154 1.61695 1.61852 1.62012 1.6217 1.6233 1.62486 1.62642 1.62793 1.62943 1.63087 1.6323 1.63368 1.63503 1.63633 1.63762 1.63885 1.64007 1.64123 1.64239 1.64349 1.64458 1.64563 1.64666 1.64764 1.64861 1.64953 1.65042 1.65123 1.65199 1.65262 1.65312 1.65336 1.65325 1.65254 1.65091 1.64777 1.64227 1.63301 1.61797 1.59422 1.55805 1.50535 1.43292 1.34013 1.23054 1.11163 0.992843 0.882588 0.786321 0.706138 0.641648 0.591021 0.551951 0.522135 0.499578 0.482615 0.469944 0.460537 0.453623 0.448598 0.445022 0.442546 0.440923 0.439949 0.439488 0.439419 0.439663 0.440146 0.440824 0.441647 0.442588 0.443611 0.444698 0.44582 0.446966 0.448109 0.449241 0.450338 0.451393 0.452387 0.453313 0.454156 0.45491 0.455565 0.456116 0.456558 0.45689 0.457108 0.457216 0.457486 0.457378 0.457158 0.456828 0.456386 0.455841 0.455191 0.45445 0.453618 0.452712 0.451736 0.450708 0.449634 0.448537 0.447423 0.44632 0.445236 0.444203 0.443236 0.442372 0.441636 0.441079 0.440744 0.440703 0.441033 0.441851 0.44329 0.445545 0.448854 0.453552 0.46006 0.468956 0.480974 0.497101 0.518581 0.547011 0.58432 0.632757 0.694632 0.77189 0.865225 0.973047 1.09052 1.20973 1.32128 1.41721 1.49321 1.54924 1.58812 1.61389 1.63034 1.64054 1.64665 1.65018 1.65206 1.65294 1.65315 1.65298 1.65252 1.65192 1.65118 1.65038 1.6495 1.6486 1.64764 1.64667 1.64565 1.64462 1.64354 1.64246 1.64132 1.64018 1.63899 1.63779 1.63654 1.63528 1.63397 1.63264 1.63127 1.62989 1.62846 1.62702 1.62554 1.62407 1.62256 1.62108 1.61958 1.61812 1.61668 1.6153 1.61396 1.61272 1.61156 1.61052 1.6096 1.60883 1.60821 1.60777 1.60749 1.60741 1.60749 1.60777 1.60821 1.60883 1.6096 1.61052 1.61156 1.61272 1.61396 1.6153 1.61668 1.61812 1.61958 1.62108 1.62257 1.62407 1.62554 1.62702 1.62846 1.62989 1.63127 1.63264 1.63397 1.63528 1.63654 1.63779 1.63899 1.64018 1.64132 1.64245 1.64354 1.64462 1.64565 1.64667 1.64764 1.6486 1.6495 1.65038 1.65118 1.65192 1.65252 1.65298 1.65316 1.65295 1.65207 1.65019 1.64666 1.64056 1.63036 1.61392 1.58816 1.54929 1.49326 1.41724 1.3213 1.20972 1.09047 0.972952 0.86508 0.771695 0.694385 0.632457 0.583965 0.546597 0.518105 0.496558 0.480361 0.468267 0.459294 0.452706 0.447928 0.444537 0.442202 0.440686 0.439795 0.439396 0.439374 0.439654 0.440165 0.440864 0.441702 0.442655 0.443686 0.44478 0.445907 0.447057 0.448204 0.449339 0.450441 0.451503 0.452504 0.45344 0.454293 0.45506 0.455729 0.456295 0.456752 0.457097 0.457327 0.457441 0.457689 0.457574 0.457345 0.457003 0.45655 0.455992 0.455331 0.454579 0.453739 0.452825 0.451843 0.45081 0.449732 0.44863 0.447513 0.446404 0.445314 0.444272 0.443293 0.442413 0.441657 0.441072 0.440699 0.44061 0.440875 0.441609 0.442937 0.445046 0.448163 0.452606 0.458775 0.467221 0.478643 0.493977 0.514409 0.541467 0.577006 0.623213 0.682391 0.756584 0.846771 0.951873 1.06772 1.18695 1.30034 1.3995 1.47936 1.53909 1.58105 1.60913 1.62721 1.63852 1.64535 1.64935 1.65153 1.6526 1.65293 1.65283 1.65243 1.65186 1.65115 1.65037 1.6495 1.64861 1.64767 1.64671 1.6457 1.64469 1.64363 1.64256 1.64145 1.64033 1.63917 1.638 1.63679 1.63557 1.6343 1.63303 1.63171 1.63039 1.62902 1.62766 1.62626 1.62487 1.62346 1.62206 1.62067 1.61931 1.61797 1.61669 1.61546 1.61432 1.61325 1.6123 1.61146 1.61076 1.61019 1.60979 1.60953 1.60946 1.60953 1.60979 1.61019 1.61076 1.61146 1.6123 1.61325 1.61432 1.61546 1.61669 1.61797 1.61931 1.62067 1.62206 1.62346 1.62487 1.62626 1.62766 1.62902 1.63039 1.63171 1.63303 1.6343 1.63557 1.63679 1.638 1.63917 1.64033 1.64145 1.64256 1.64362 1.64468 1.6457 1.64671 1.64766 1.64861 1.6495 1.65036 1.65114 1.65186 1.65243 1.65284 1.65294 1.6526 1.65154 1.64937 1.64537 1.63854 1.62724 1.60917 1.58109 1.53913 1.4794 1.39954 1.30035 1.18693 1.06766 0.951768 0.846616 0.756378 0.682133 0.622901 0.576638 0.541039 0.513917 0.493417 0.478011 0.466514 0.45799 0.45174 0.447216 0.444019 0.44183 0.440425 0.439619 0.439285 0.439313 0.439633 0.440173 0.440895 0.441752 0.442718 0.44376 0.444862 0.445997 0.447153 0.448306 0.449447 0.450556 0.451625 0.452636 0.453581 0.454447 0.455227 0.455909 0.45649 0.456962 0.45732 0.45756 0.457682 0.457907 0.457787 0.457548 0.457195 0.45673 0.45616 0.455488 0.454725 0.453875 0.452952 0.451963 0.450922 0.449838 0.44873 0.447606 0.44649 0.445392 0.444338 0.443346 0.442448 0.441668 0.441052 0.440641 0.4405 0.440699 0.441345 0.442559 0.444518 0.447438 0.451619 0.457442 0.465428 0.476238 0.49076 0.510121 0.535772 0.569491 0.613396 0.669766 0.740723 0.827512 0.929553 1.04336 1.16224 1.27723 1.37963 1.46356 1.52735 1.57278 1.60354 1.62353 1.63613 1.64382 1.64838 1.65092 1.65221 1.65269 1.65269 1.65235 1.65182 1.65113 1.65037 1.64953 1.64866 1.64772 1.64678 1.64579 1.64479 1.64375 1.6427 1.64161 1.64052 1.63939 1.63825 1.63707 1.63589 1.63467 1.63345 1.63218 1.63092 1.62962 1.62832 1.627 1.62569 1.62436 1.62306 1.62176 1.62049 1.61925 1.61807 1.61693 1.61588 1.6149 1.61403 1.61326 1.61262 1.6121 1.61173 1.6115 1.61143 1.6115 1.61173 1.6121 1.61262 1.61326 1.61403 1.6149 1.61588 1.61693 1.61807 1.61925 1.62049 1.62176 1.62306 1.62436 1.62569 1.627 1.62832 1.62962 1.63092 1.63218 1.63345 1.63467 1.63589 1.63707 1.63825 1.63939 1.64052 1.64161 1.6427 1.64374 1.64478 1.64578 1.64678 1.64772 1.64865 1.64953 1.65037 1.65113 1.65182 1.65235 1.65269 1.6527 1.65222 1.65093 1.64839 1.64384 1.63615 1.62356 1.60357 1.57282 1.5274 1.46361 1.37966 1.27724 1.16222 1.0433 0.92944 0.827349 0.740508 0.669497 0.613073 0.569111 0.535331 0.509615 0.490186 0.475591 0.464704 0.456639 0.450735 0.446472 0.443472 0.441434 0.440143 0.439425 0.439158 0.439239 0.439599 0.440172 0.440918 0.441795 0.442777 0.443832 0.444944 0.446088 0.447252 0.448414 0.449563 0.45068 0.451758 0.452779 0.453736 0.454613 0.455407 0.456103 0.456699 0.457184 0.457555 0.457805 0.457933 0.458136 0.458011 0.457764 0.4574 0.456923 0.456341 0.455657 0.454883 0.454023 0.45309 0.452092 0.451043 0.449951 0.448835 0.447703 0.446577 0.445468 0.444402 0.443394 0.442476 0.441671 0.441023 0.44057 0.440376 0.440507 0.441064 0.442162 0.443968 0.446687 0.450602 0.456074 0.463593 0.473783 0.487483 0.505756 0.529979 0.561845 0.603395 0.656868 0.724446 0.807605 0.906244 1.01759 1.13566 1.25192 1.35745 1.44562 1.51382 1.56314 1.59695 1.61916 1.63329 1.642 1.64723 1.65019 1.65176 1.65242 1.65253 1.65227 1.65179 1.65114 1.6504 1.64958 1.64872 1.64781 1.64688 1.6459 1.64492 1.6439 1.64288 1.64181 1.64075 1.63964 1.63854 1.6374 1.63626 1.63508 1.6339 1.63269 1.63148 1.63025 1.62902 1.62777 1.62653 1.62529 1.62407 1.62285 1.62168 1.62052 1.61943 1.61838 1.61742 1.61652 1.61572 1.61502 1.61443 1.61396 1.61363 1.61342 1.61335 1.61342 1.61363 1.61396 1.61443 1.61502 1.61572 1.61652 1.61742 1.61838 1.61943 1.62052 1.62168 1.62285 1.62407 1.62529 1.62653 1.62777 1.62902 1.63025 1.63148 1.63269 1.6339 1.63508 1.63626 1.6374 1.63854 1.63964 1.64074 1.64181 1.64287 1.6439 1.64492 1.6459 1.64688 1.64781 1.64872 1.64958 1.6504 1.65114 1.65179 1.65227 1.65254 1.65243 1.65177 1.65021 1.64724 1.64202 1.63332 1.61919 1.59699 1.56319 1.51387 1.44567 1.35749 1.25193 1.13564 1.01752 0.906124 0.807434 0.724222 0.656592 0.603063 0.561455 0.529527 0.505238 0.486895 0.473121 0.462853 0.455255 0.449701 0.445703 0.442903 0.441018 0.439844 0.439215 0.439018 0.439153 0.439554 0.440161 0.440933 0.441831 0.44283 0.4439 0.445025 0.44618 0.447354 0.448525 0.449684 0.450811 0.451899 0.452931 0.453899 0.45479 0.455597 0.456307 0.456916 0.457414 0.457797 0.458057 0.45819 0.458375 0.458245 0.457989 0.457615 0.457127 0.456532 0.455837 0.455051 0.454179 0.453236 0.452228 0.451169 0.450068 0.448942 0.4478 0.446663 0.445542 0.444461 0.443436 0.442496 0.441665 0.440984 0.440488 0.44024 0.440302 0.440768 0.441748 0.443401 0.445917 0.449565 0.454684 0.461733 0.4713 0.484173 0.501352 0.524136 0.554132 0.593293 0.643807 0.707886 0.787208 0.882117 0.99054 1.1073 1.2244 1.33285 1.42533 1.49826 1.5519 1.58919 1.61398 1.62991 1.63983 1.64585 1.64933 1.65123 1.65211 1.65236 1.65219 1.65177 1.65116 1.65046 1.64966 1.64882 1.64793 1.64701 1.64606 1.64509 1.64409 1.64309 1.64205 1.64101 1.63994 1.63886 1.63776 1.63666 1.63552 1.63439 1.63323 1.63208 1.6309 1.62974 1.62856 1.62739 1.62622 1.62508 1.62394 1.62285 1.62178 1.62077 1.6198 1.61891 1.61809 1.61736 1.61671 1.61618 1.61575 1.61544 1.61525 1.61519 1.61525 1.61544 1.61575 1.61618 1.61671 1.61736 1.61809 1.61891 1.6198 1.62077 1.62178 1.62285 1.62394 1.62508 1.62622 1.62739 1.62856 1.62974 1.6309 1.63208 1.63323 1.63439 1.63552 1.63665 1.63776 1.63886 1.63993 1.64101 1.64205 1.64308 1.64409 1.64509 1.64605 1.64701 1.64792 1.64882 1.64966 1.65046 1.65116 1.65177 1.65219 1.65236 1.65211 1.65124 1.64935 1.64586 1.63985 1.62994 1.61401 1.58923 1.55195 1.49831 1.42538 1.33288 1.2244 1.10727 0.990465 0.881992 0.787032 0.707657 0.643524 0.592954 0.553733 0.523674 0.500823 0.483572 0.470625 0.460978 0.453849 0.448648 0.444917 0.442319 0.440587 0.43953 0.438992 0.438865 0.439055 0.439499 0.44014 0.440941 0.441861 0.442879 0.443965 0.445104 0.446271 0.447456 0.448638 0.449808 0.450946 0.452045 0.453089 0.45407 0.454974 0.455793 0.456517 0.45714 0.457651 0.458045 0.458314 0.458452 0.458619 0.458484 0.458221 0.457837 0.457337 0.456731 0.456024 0.455226 0.454343 0.453389 0.452369 0.4513 0.450188 0.449051 0.447898 0.446748 0.445614 0.444517 0.443473 0.44251 0.441651 0.440935 0.440397 0.440094 0.440085 0.440461 0.441323 0.442821 0.445136 0.448517 0.453282 0.459863 0.468809 0.480856 0.496943 0.51829 0.546413 0.583172 0.630688 0.691179 0.766485 0.857355 0.962399 1.07728 1.19467 1.30571 1.40248 1.4804 1.5388 1.58004 1.60781 1.62586 1.63722 1.64419 1.6483 1.6506 1.65173 1.65215 1.65209 1.65175 1.6512 1.65053 1.64976 1.64894 1.64807 1.64717 1.64624 1.64529 1.64432 1.64333 1.64232 1.64131 1.64026 1.63922 1.63816 1.63709 1.636 1.63491 1.63381 1.6327 1.63159 1.63048 1.62936 1.62827 1.62717 1.6261 1.62504 1.62402 1.62303 1.62209 1.6212 1.62038 1.61962 1.61895 1.61836 1.61788 1.61748 1.61721 1.61703 1.61698 1.61703 1.61721 1.61748 1.61788 1.61836 1.61895 1.61962 1.62038 1.6212 1.62209 1.62303 1.62402 1.62504 1.6261 1.62717 1.62827 1.62936 1.63048 1.63159 1.6327 1.63381 1.63491 1.636 1.63709 1.63815 1.63922 1.64026 1.6413 1.64232 1.64333 1.64431 1.64529 1.64624 1.64717 1.64807 1.64894 1.64976 1.65053 1.65119 1.65175 1.6521 1.65216 1.65174 1.65061 1.64831 1.6442 1.63724 1.62588 1.60785 1.58008 1.53885 1.48046 1.40253 1.30574 1.19468 1.07725 0.96232 0.857226 0.766305 0.690945 0.6304 0.582826 0.546007 0.51782 0.496405 0.480245 0.468121 0.459095 0.452433 0.447584 0.44412 0.441723 0.440145 0.439206 0.438759 0.438702 0.438947 0.439435 0.440111 0.44094 0.441884 0.442922 0.444025 0.445179 0.44636 0.447557 0.448752 0.449933 0.451083 0.452195 0.453251 0.454245 0.455161 0.455994 0.456732 0.457367 0.45789 0.458294 0.458571 0.458714 0.458865 0.458726 0.458456 0.458063 0.457553 0.456935 0.456216 0.455406 0.454511 0.453545 0.452514 0.451432 0.450309 0.44916 0.447994 0.446831 0.445681 0.444567 0.443503 0.442517 0.44163 0.440879 0.440297 0.439939 0.43986 0.440145 0.44089 0.442235 0.444349 0.447465 0.451881 0.457997 0.466327 0.477557 0.492562 0.512483 0.538743 0.573105 0.617608 0.674452 0.745599 0.832148 0.933361 1.04576 1.16282 1.27597 1.37688 1.45998 1.52354 1.56923 1.60045 1.62098 1.63406 1.64217 1.64703 1.64983 1.65128 1.65191 1.65198 1.65173 1.65124 1.65062 1.64988 1.64909 1.64824 1.64737 1.64645 1.64553 1.64457 1.64361 1.64263 1.64164 1.64063 1.63962 1.63858 1.63756 1.63651 1.63546 1.6344 1.63335 1.63229 1.63124 1.63018 1.62915 1.62812 1.62711 1.62612 1.62517 1.62425 1.62338 1.62256 1.6218 1.6211 1.62049 1.61995 1.6195 1.61914 1.61889 1.61873 1.61868 1.61873 1.61889 1.61914 1.6195 1.61995 1.62049 1.6211 1.6218 1.62256 1.62339 1.62425 1.62517 1.62612 1.62711 1.62812 1.62915 1.63018 1.63124 1.63229 1.63335 1.6344 1.63546 1.63651 1.63755 1.63858 1.63962 1.64063 1.64164 1.64262 1.64361 1.64457 1.64552 1.64645 1.64736 1.64824 1.64909 1.64988 1.65061 1.65124 1.65173 1.65199 1.65191 1.65129 1.64983 1.64705 1.64219 1.63408 1.62101 1.60049 1.56928 1.5236 1.46003 1.37693 1.276 1.16282 1.04573 0.933279 0.832017 0.745415 0.674215 0.617316 0.572755 0.538332 0.512006 0.492016 0.476937 0.465629 0.457218 0.451019 0.446519 0.443319 0.441122 0.439697 0.438874 0.438517 0.43853 0.438831 0.439363 0.440074 0.440932 0.441901 0.442958 0.44408 0.445249 0.446445 0.447656 0.448864 0.450058 0.451221 0.452345 0.453415 0.454421 0.455351 0.456197 0.456948 0.457595 0.458129 0.458543 0.458827 0.458974 0.459112 0.458969 0.458692 0.45829 0.45777 0.457141 0.456411 0.455588 0.454682 0.453703 0.452659 0.451565 0.450429 0.