# vtk DataFile Version 3.0
Immiscible displacement
ASCII
DATASET RECTILINEAR_GRID
DIMENSIONS 200 200 1
X_COORDINATES 200 double
1 2 3 4 5 6 7 8 9 10 11 12 13 14 15 16 17 18 19 20 21 22 23 24 25 26 27 28 29 30 31 32 33 34 35 36 37 38 39 40 41 42 43 44 45 46 47 48 49 50 51 52 53 54 55 56 57 58 59 60 61 62 63 64 65 66 67 68 69 70 71 72 73 74 75 76 77 78 79 80 81 82 83 84 85 86 87 88 89 90 91 92 93 94 95 96 97 98 99 100 101 102 103 104 105 106 107 108 109 110 111 112 113 114 115 116 117 118 119 120 121 122 123 124 125 126 127 128 129 130 131 132 133 134 135 136 137 138 139 140 141 142 143 144 145 146 147 148 149 150 151 152 153 154 155 156 157 158 159 160 161 162 163 164 165 166 167 168 169 170 171 172 173 174 175 176 177 178 179 180 181 182 183 184 185 186 187 188 189 190 191 192 193 194 195 196 197 198 199 200 
Y_COORDINATES 200 double
1 2 3 4 5 6 7 8 9 10 11 12 13 14 15 16 17 18 19 20 21 22 23 24 25 26 27 28 29 30 31 32 33 34 35 36 37 38 39 40 41 42 43 44 45 46 47 48 49 50 51 52 53 54 55 56 57 58 59 60 61 62 63 64 65 66 67 68 69 70 71 72 73 74 75 76 77 78 79 80 81 82 83 84 85 86 87 88 89 90 91 92 93 94 95 96 97 98 99 100 101 102 103 104 105 106 107 108 109 110 111 112 113 114 115 116 117 118 119 120 121 122 123 124 125 126 127 128 129 130 131 132 133 134 135 136 137 138 139 140 141 142 143 144 145 146 147 148 149 150 151 152 153 154 155 156 157 158 159 160 161 162 163 164 165 166 167 168 169 170 171 172 173 174 175 176 177 178 179 180 181 182 183 184 185 186 187 188 189 190 191 192 193 194 195 196 197 198 199 200 
Z_COORDINATES 1 double
0
POINT_DATA 40000
SCALARS rho double 1
LOOKUP_TABLE default
0.455591 0.455645 0.455656 0.455567 0.455345 0.454976 0.454452 0.453781 0.452971 0.45204 0.451004 0.449889 0.448714 0.447508 0.446292 0.445098 0.443948 0.442879 0.441918 0.441108 0.440487 0.440113 0.440048 0.440379 0.441209 0.442684 0.444983 0.448358 0.45313 0.45974 0.468757 0.480952 0.49732 0.51917 0.548147 0.586293 0.635947 0.699558 0.77911 0.875249 0.986053 1.10616 1.22694 1.3386 1.43317 1.50687 1.56026 1.59672 1.62049 1.63547 1.64459 1.64999 1.65301 1.65455 1.65514 1.65515 1.65476 1.65411 1.65325 1.65225 1.6511 1.64986 1.64848 1.64701 1.6454 1.64369 1.64182 1.63983 1.63768 1.63539 1.63291 1.63027 1.62743 1.62441 1.62117 1.61774 1.61408 1.61021 1.60612 1.60183 1.59733 1.59265 1.58779 1.58281 1.5777 1.57254 1.56734 1.56218 1.5571 1.55217 1.54745 1.54301 1.53889 1.53519 1.53194 1.52921 1.52703 1.52545 1.52449 1.52417 1.52449 1.52545 1.52703 1.52921 1.53194 1.53519 1.53889 1.54301 1.54745 1.55217 1.5571 1.56218 1.56734 1.57254 1.5777 1.58281 1.58779 1.59265 1.59733 1.60183 1.60612 1.61021 1.61408 1.61774 1.62117 1.62441 1.62743 1.63027 1.63291 1.63539 1.63768 1.63983 1.64182 1.64369 1.6454 1.64701 1.64848 1.64986 1.6511 1.65224 1.65324 1.6541 1.65475 1.65515 1.65514 1.65454 1.653 1.64998 1.64459 1.63546 1.62049 1.59672 1.56027 1.50689 1.4332 1.33864 1.22699 1.10621 0.986111 0.875304 0.779158 0.699594 0.635967 0.586291 0.54812 0.519111 0.497224 0.480812 0.468566 0.45949 0.452814 0.447968 0.44451 0.442122 0.440552 0.439622 0.439187 0.439146 0.439412 0.439928 0.440636 0.441502 0.442484 0.443557 0.444689 0.445857 0.447033 0.448197 0.449321 0.450386 0.451366 0.452244 0.452998 0.453616 0.454085 0.454403 0.454573 0.454614 0.45456 0.454475 0.455744 0.455763 0.455739 0.455622 0.455377 0.454992 0.454457 0.45378 0.452965 0.452034 0.450998 0.449887 0.448714 0.447513 0.446299 0.44511 0.443963 0.442897 0.441937 0.441129 0.440506 0.440133 0.440062 0.44039 0.44121 0.442675 0.444957 0.448313 0.453055 0.459628 0.468593 0.480723 0.497 0.518732 0.547552 0.585497 0.634894 0.698198 0.777398 0.873186 0.983695 1.10365 1.22447 1.33639 1.43134 1.50548 1.55925 1.59603 1.62002 1.63514 1.64436 1.64982 1.65286 1.65443 1.65503 1.65506 1.65466 1.65401 1.65314 1.65215 1.651 1.64976 1.64838 1.64691 1.6453 1.64359 1.64173 1.63976 1.63761 1.63533 1.63286 1.63025 1.62742 1.62443 1.62121 1.61782 1.61419 1.61038 1.60632 1.60209 1.59764 1.59303 1.58824 1.58333 1.57829 1.57321 1.56808 1.56301 1.558 1.55315 1.54849 1.54412 1.54007 1.53643 1.53322 1.53054 1.52838 1.52683 1.52588 1.52557 1.52588 1.52683 1.52838 1.53054 1.53322 1.53643 1.54007 1.54412 1.54849 1.55315 1.558 1.56301 1.56808 1.57321 1.57829 1.58333 1.58824 1.59303 1.59764 1.60209 1.60632 1.61038 1.61419 1.61782 1.62121 1.62443 1.62742 1.63025 1.63286 1.63533 1.63761 1.63976 1.64173 1.64359 1.6453 1.64691 1.64838 1.64976 1.651 1.65215 1.65314 1.65401 1.65465 1.65505 1.65503 1.65443 1.65286 1.64981 1.64435 1.63514 1.62001 1.59603 1.55926 1.50549 1.43137 1.33642 1.22452 1.1037 0.983753 0.87324 0.777443 0.69823 0.634909 0.58549 0.547519 0.518667 0.496897 0.480575 0.468395 0.45937 0.45273 0.447912 0.444475 0.442103 0.440544 0.439623 0.439193 0.439157 0.439425 0.439943 0.440651 0.441517 0.442497 0.443569 0.444698 0.445865 0.447037 0.448199 0.449321 0.450386 0.451365 0.452247 0.453006 0.453634 0.454115 0.454452 0.454647 0.454721 0.454707 0.454665 0.45598 0.455967 0.4559 0.455742 0.455462 0.455049 0.454493 0.453801 0.452977 0.452041 0.451004 0.449893 0.448723 0.447526 0.446317 0.445131 0.443988 0.442925 0.441966 0.441158 0.440533 0.440155 0.440077 0.440392 0.441196 0.442638 0.44489 0.448204 0.452892 0.459392 0.468261 0.480261 0.496366 0.517871 0.546392 0.583948 0.632856 0.695567 0.774096 0.869204 0.979145 1.09879 1.21969 1.33207 1.42776 1.50273 1.55727 1.59466 1.61909 1.63451 1.64392 1.6495 1.65263 1.65424 1.65486 1.6549 1.65451 1.65386 1.653 1.65201 1.65086 1.64962 1.64824 1.64677 1.64517 1.64347 1.64161 1.63965 1.63752 1.63527 1.63282 1.63024 1.62745 1.62451 1.62134 1.61801 1.61445 1.61071 1.60674 1.6026 1.59825 1.59375 1.58908 1.58429 1.57939 1.57444 1.56946 1.56452 1.55965 1.55494 1.55041 1.54616 1.54222 1.53869 1.53557 1.53296 1.53087 1.52936 1.52843 1.52813 1.52843 1.52936 1.53087 1.53296 1.53557 1.53869 1.54222 1.54616 1.55041 1.55494 1.55965 1.56452 1.56946 1.57444 1.57939 1.58429 1.58908 1.59375 1.59825 1.6026 1.60674 1.61071 1.61445 1.61801 1.62134 1.62451 1.62745 1.63024 1.63282 1.63527 1.63752 1.63965 1.64161 1.64347 1.64517 1.64677 1.64824 1.64961 1.65085 1.652 1.653 1.65386 1.6545 1.65489 1.65486 1.65423 1.65262 1.6495 1.64392 1.63451 1.61909 1.59466 1.55728 1.50275 1.42779 1.33211 1.21974 1.09885 0.979201 0.869255 0.774138 0.695594 0.632865 0.583934 0.54635 0.517796 0.496252 0.480101 0.468048 0.459119 0.452552 0.447788 0.444391 0.44205 0.440514 0.43961 0.439192 0.439165 0.43944 0.439962 0.440672 0.441539 0.442518 0.443589 0.444716 0.44588 0.447051 0.448212 0.449333 0.4504 0.451384 0.452273 0.453045 0.45369 0.454196 0.454566 0.454801 0.454922 0.454959 0.454955 0.456273 0.456234 0.456125 0.455923 0.455603 0.455155 0.454571 0.453858 0.453019 0.452073 0.451031 0.449918 0.448748 0.447552 0.446345 0.445162 0.44402 0.442959 0.441999 0.441188 0.440558 0.440171 0.44008 0.440377 0.441156 0.442565 0.444772 0.448027 0.452636 0.459031 0.46776 0.479575 0.495433 0.516611 0.544702 0.581702 0.629906 0.691763 0.769324 0.863445 0.97255 1.09173 1.21271 1.32573 1.42249 1.49867 1.55433 1.59262 1.61771 1.63359 1.6433 1.64907 1.6523 1.65399 1.65465 1.65471 1.65433 1.6537 1.65284 1.65185 1.6507 1.64946 1.64809 1.64663 1.64503 1.64335 1.64151 1.63957 1.63746 1.63524 1.63283 1.63029 1.62755 1.62467 1.62157 1.61832 1.61485 1.61121 1.60736 1.60334 1.59913 1.59478 1.59026 1.58564 1.58092 1.57615 1.57135 1.56661 1.56193 1.5574 1.55305 1.54898 1.54519 1.5418 1.53881 1.5363 1.53429 1.53285 1.53196 1.53167 1.53196 1.53285 1.53429 1.5363 1.53881 1.5418 1.54519 1.54898 1.55305 1.5574 1.56193 1.56661 1.57135 1.57615 1.58092 1.58564 1.59026 1.59478 1.59913 1.60334 1.60736 1.61121 1.61485 1.61832 1.62157 1.62467 1.62755 1.63029 1.63283 1.63524 1.63746 1.63957 1.64151 1.64334 1.64503 1.64663 1.64809 1.64946 1.6507 1.65184 1.65283 1.65369 1.65433 1.65471 1.65465 1.65398 1.6523 1.64906 1.6433 1.63359 1.61771 1.59263 1.55434 1.49869 1.42252 1.32578 1.21276 1.09179 0.972606 0.863493 0.769361 0.691784 0.629907 0.581678 0.544649 0.516523 0.495305 0.479399 0.467531 0.45874 0.452276 0.447591 0.444253 0.441956 0.440453 0.439575 0.439176 0.439163 0.439448 0.439977 0.440693 0.441563 0.442544 0.443616 0.444742 0.445907 0.447079 0.448241 0.449366 0.450438 0.451431 0.452334 0.453124 0.453795 0.454334 0.454744 0.455026 0.455199 0.455283 0.455311 0.456609 0.456547 0.456402 0.456157 0.455795 0.455309 0.454693 0.453954 0.453095 0.452135 0.451083 0.449963 0.44879 0.447592 0.446385 0.445201 0.444059 0.442995 0.442032 0.441215 0.440576 0.440175 0.440067 0.440339 0.441086 0.442451 0.4446 0.447779 0.452287 0.458549 0.4671 0.478678 0.494222 0.514983 0.542527 0.578816 0.626123 0.686888 0.763203 0.856045 0.964053 1.08259 1.20362 1.31744 1.41555 1.49329 1.55042 1.58991 1.61589 1.63238 1.64249 1.64851 1.65191 1.65369 1.65441 1.65451 1.65415 1.65353 1.65268 1.65169 1.65055 1.64932 1.64795 1.64651 1.64492 1.64325 1.64143 1.63952 1.63744 1.63526 1.6329 1.63041 1.62774 1.62493 1.62192 1.61876 1.61539 1.61188 1.60816 1.6043 1.60025 1.59607 1.59174 1.58733 1.58281 1.57826 1.57369 1.56917 1.56472 1.56042 1.55628 1.55241 1.54882 1.5456 1.54276 1.54039 1.53849 1.53712 1.53627 1.536 1.53627 1.53712 1.53849 1.54039 1.54276 1.5456 1.54882 1.55241 1.55628 1.56042 1.56472 1.56917 1.57369 1.57826 1.58281 1.58733 1.59174 1.59607 1.60025 1.6043 1.60816 1.61188 1.6154 1.61876 1.62192 1.62493 1.62774 1.63041 1.6329 1.63526 1.63744 1.63952 1.64143 1.64325 1.64492 1.6465 1.64795 1.64932 1.65055 1.65169 1.65267 1.65353 1.65415 1.6545 1.65441 1.65368 1.6519 1.64851 1.64248 1.63238 1.61589 1.58992 1.55044 1.49332 1.41558 1.31749 1.20368 1.08265 0.964107 0.85609 0.763235 0.686901 0.626114 0.578782 0.542461 0.514881 0.494078 0.478485 0.466852 0.458237 0.451906 0.44732 0.444058 0.441818 0.440359 0.439514 0.43914 0.439147 0.439446 0.439986 0.44071 0.441586 0.442572 0.443647 0.444777 0.445945 0.447121 0.448288 0.44942 0.450503 0.45151 0.452432 0.453247 0.453949 0.454525 0.454979 0.45531 0.455532 0.455658 0.455712 0.456979 0.456897 0.45672 0.456435 0.456032 0.455507 0.454856 0.454088 0.453206 0.452228 0.451161 0.450032 0.448851 0.447647 0.446435 0.445248 0.444101 0.443032 0.442062 0.441235 0.440584 0.440166 0.440034 0.440276 0.440982 0.442295 0.444375 0.447462 0.45185 0.457952 0.466291 0.477587 0.492756 0.513021 0.539911 0.575354 0.621586 0.681041 0.755855 0.84714 0.953786 1.07149 1.19251 1.30723 1.40693 1.48658 1.54552 1.58651 1.6136 1.63086 1.64148 1.64783 1.65144 1.65335 1.65415 1.6543 1.65397 1.65337 1.65253 1.65155 1.65042 1.6492 1.64784 1.64641 1.64484 1.64319 1.6414 1.63952 1.63748 1.63534 1.63304 1.63062 1.62802 1.62529 1.62237 1.61932 1.61608 1.6127 1.60914 1.60544 1.60157 1.5976 1.59348 1.58929 1.585 1.58071 1.57639 1.57213 1.56793 1.56388 1.55999 1.55636 1.55298 1.54996 1.5473 1.54507 1.54329 1.54201 1.54121 1.54096 1.54121 1.54201 1.54329 1.54507 1.5473 1.54996 1.55298 1.55636 1.55999 1.56388 1.56793 1.57213 1.57639 1.58071 1.585 1.58929 1.59348 1.5976 1.60157 1.60544 1.60914 1.6127 1.61608 1.61932 1.62237 1.62529 1.62802 1.63062 1.63304 1.63534 1.63748 1.63952 1.6414 1.64319 1.64484 1.64641 1.64784 1.6492 1.65042 1.65155 1.65252 1.65336 1.65396 1.65429 1.65415 1.65334 1.65143 1.64783 1.64148 1.63086 1.6136 1.58652 1.54554 1.4866 1.40697 1.30728 1.19257 1.07155 0.953838 0.847181 0.755881 0.681047 0.621568 0.575308 0.539833 0.512904 0.492596 0.477375 0.466023 0.457619 0.451446 0.446979 0.443808 0.441637 0.44023 0.439425 0.439083 0.439113 0.439432 0.439987 0.440722 0.441607 0.442602 0.443684 0.44482 0.445995 0.447178 0.448355 0.449498 0.450595 0.451621 0.452566 0.45341 0.454146 0.454763 0.455261 0.455639 0.455906 0.45607 0.456146 0.457374 0.457275 0.457068 0.456747 0.456305 0.455742 0.455057 0.454258 0.453349 0.452349 0.451265 0.450121 0.448929 0.447716 0.446497 0.445302 0.444147 0.443069 0.442089 0.441249 0.440581 0.440141 0.439982 0.440187 0.440847 0.442098 0.444099 0.447081 0.451331 0.45725 0.465347 0.47632 0.491062 0.51076 0.536904 0.571377 0.616378 0.674325 0.747401 0.836861 0.941879 1.05854 1.17945 1.29512 1.39662 1.47848 1.53958 1.58236 1.6108 1.62901 1.64027 1.64703 1.65089 1.65297 1.65387 1.65408 1.65379 1.65322 1.6524 1.65144 1.65032 1.64911 1.64777 1.64635 1.64481 1.64319 1.64143 1.63958 1.63759 1.6355 1.63325 1.6309 1.62838 1.62575 1.62294 1.62001 1.6169 1.61367 1.61027 1.60675 1.60308 1.59931 1.59542 1.59148 1.58745 1.58342 1.57937 1.57538 1.57146 1.56769 1.56406 1.56068 1.55754 1.55474 1.55226 1.5502 1.54854 1.54735 1.54662 1.54638 1.54662 1.54735 1.54854 1.5502 1.55226 1.55474 1.55754 1.56068 1.56406 1.56769 1.57146 1.57538 1.57937 1.58342 1.58745 1.59148 1.59542 1.59931 1.60308 1.60675 1.61027 1.61367 1.6169 1.62001 1.62294 1.62575 1.62838 1.6309 1.63325 1.6355 1.63759 1.63958 1.64142 1.64318 1.64481 1.64635 1.64777 1.64911 1.65031 1.65143 1.65239 1.65321 1.65379 1.65408 1.65387 1.65296 1.65089 1.64703 1.64027 1.62901 1.61081 1.58237 1.5396 1.47851 1.39667 1.29517 1.1795 1.0586 0.941929 0.836898 0.747421 0.674324 0.616351 0.57132 0.536813 0.510629 0.490886 0.476091 0.465059 0.456895 0.450903 0.446574 0.443506 0.441414 0.440068 0.43931 0.439004 0.439063 0.439405 0.439978 0.440728 0.441626 0.442632 0.443724 0.44487 0.446055 0.447249 0.448439 0.449598 0.450713 0.451762 0.452733 0.453607 0.45438 0.455037 0.455579 0.456001 0.456309 0.456507 0.456602 0.457788 0.457674 0.45744 0.457085 0.456607 0.456007 0.455287 0.454456 0.45352 0.452496 0.451392 0.450231 0.449024 0.447798 0.446568 0.445361 0.444196 0.443106 0.442112 0.441255 0.440566 0.440101 0.43991 0.440074 0.440681 0.441863 0.443775 0.446641 0.450738 0.456454 0.464283 0.474899 0.489167 0.508236 0.533552 0.566948 0.610578 0.666841 0.737958 0.825339 0.928459 1.04383 1.16448 1.2811 1.38458 1.46893 1.53251 1.57741 1.60746 1.6268 1.63882 1.64608 1.65026 1.65254 1.65357 1.65386 1.65362 1.65308 1.65229 1.65134 1.65024 1.64905 1.64773 1.64634 1.64482 1.64323 1.6415 1.6397 1.63775 1.63572 1.63354 1.63127 1.62884 1.6263 1.6236 1.6208 1.61783 1.61476 1.61153 1.60821 1.60474 1.6012 1.59755 1.59385 1.59009 1.58633 1.58257 1.57887 1.57524 1.57175 1.56841 1.56529 1.5624 1.55982 1.55754 1.55565 1.55413 1.55304 1.55236 1.55215 1.55236 1.55304 1.55413 1.55565 1.55754 1.55982 1.5624 1.56529 1.56841 1.57175 1.57524 1.57887 1.58257 1.58633 1.59009 1.59385 1.59755 1.6012 1.60474 1.60821 1.61153 1.61476 1.61783 1.6208 1.6236 1.6263 1.62884 1.63127 1.63354 1.63572 1.63775 1.6397 1.6415 1.64322 1.64482 1.64634 1.64773 1.64905 1.65024 1.65134 1.65228 1.65308 1.65362 1.65385 1.65357 1.65253 1.65026 1.64608 1.63882 1.6268 1.60747 1.57742 1.53254 1.46897 1.38463 1.28116 1.16454 1.04389 0.928507 0.825372 0.737972 0.666832 0.610543 0.566881 0.533449 0.50809 0.488974 0.474652 0.463975 0.456078 0.450287 0.446109 0.443157 0.441153 0.439875 0.439169 0.438905 0.438997 0.439365 0.439959 0.440728 0.441642 0.442661 0.443767 0.444926 0.446125 0.447334 0.448539 0.449717 0.450853 0.451927 0.452926 0.453834 0.454643 0.45534 0.455923 0.456386 0.456732 0.456959 0.457072 0.458213 0.458085 0.457827 0.457442 0.456929 0.456295 0.455541 0.454679 0.453714 0.452664 0.451537 0.450356 0.449133 0.447891 0.446646 0.445426 0.444246 0.443141 0.44213 0.441253 0.440541 0.440047 0.439819 0.439938 0.440487 0.441595 0.44341 0.446149 0.45008 0.455576 0.463114 0.473343 0.487097 0.505484 0.529903 0.56213 0.604268 0.658686 0.727644 0.812702 0.913652 1.02747 1.14766 1.26518 1.37074 1.45785 1.52424 1.57157 1.6035 1.62418 1.63711 1.64497 1.64954 1.65206 1.65325 1.65363 1.65346 1.65296 1.6522 1.65128 1.6502 1.64903 1.64774 1.64637 1.64488 1.64332 1.64163 1.63987 1.63799 1.63601 1.63391 1.63171 1.62937 1.62694 1.62436 1.62169 1.61887 1.61596 1.61291 1.60978 1.60653 1.60321 1.59981 1.59637 1.59288 1.5894 1.58593 1.58252 1.57918 1.57598 1.57292 1.57007 1.56743 1.56508 1.56301 1.56128 1.5599 1.55891 1.55829 1.5581 1.55829 1.55891 1.5599 1.56128 1.56301 1.56508 1.56743 1.57007 1.57292 1.57598 1.57918 1.58252 1.58593 1.5894 1.59288 1.59637 1.59981 1.60321 1.60653 1.60978 1.61291 1.61596 1.61887 1.62169 1.62436 1.62694 1.62937 1.63171 1.63391 1.63601 1.63799 1.63987 1.64163 1.64332 1.64488 1.64637 1.64774 1.64903 1.6502 1.65128 1.6522 1.65296 1.65346 1.65363 1.65324 1.65205 1.64954 1.64497 1.63712 1.62419 1.60351 1.57158 1.52427 1.45789 1.37079 1.26524 1.14772 1.02753 0.913698 0.812732 0.727654 0.658671 0.604224 0.562052 0.529788 0.505326 0.486889 0.473079 0.462786 0.455179 0.449606 0.445593 0.442766 0.440857 0.439654 0.439005 0.438787 0.438915 0.439312 0.439931 0.440722 0.441654 0.44269 0.443812 0.444987 0.446202 0.447428 0.448653 0.449852 0.451012 0.452112 0.453141 0.454082 0.454927 0.455662 0.456285 0.456786 0.457165 0.457419 0.457547 0.458643 0.458502 0.458222 0.45781 0.457266 0.456598 0.455812 0.454919 0.453925 0.452848 0.451698 0.450495 0.449252 0.447992 0.44673 0.445493 0.444297 0.443173 0.442143 0.441243 0.440505 0.439978 0.439712 0.439781 0.440268 0.441296 0.443007 0.445612 0.449365 0.454627 0.461855 0.471673 0.48488 0.502541 0.526004 0.556982 0.597523 0.649959 0.716576 0.799079 0.897583 1.00956 1.12905 1.24734 1.35504 1.44511 1.51464 1.56474 1.59884 1.6211 1.63511 1.64367 1.6487 1.65151 1.65289 1.65339 1.6533 1.65286 1.65213 1.65125 1.65019 1.64905 1.64778 1.64644 1.64498 1.64346 1.64182 1.64011 1.63828 1.63637 1.63434 1.63223 1.62999 1.62766 1.62521 1.62267 1.62 1.61725 1.61439 1.61145 1.60842 1.60533 1.60217 1.59899 1.59577 1.59257 1.58939 1.58627 1.58323 1.58031 1.57753 1.57495 1.57256 1.57043 1.56857 1.56701 1.56576 1.56487 1.56432 1.56414 1.56432 1.56487 1.56576 1.56701 1.56857 1.57043 1.57256 1.57495 1.57753 1.58031 1.58323 1.58627 1.58939 1.59257 1.59577 1.59899 1.60217 1.60533 1.60842 1.61145 1.61439 1.61725 1.62 1.62267 1.62521 1.62766 1.62999 1.63223 1.63434 1.63637 1.63828 1.64011 1.64182 1.64346 1.64498 1.64644 1.64778 1.64905 1.65019 1.65124 1.65213 1.65285 1.6533 1.65339 1.65288 1.65151 1.6487 1.64367 1.63511 1.62111 1.59885 1.56475 1.51467 1.44515 1.35509 1.2474 1.12911 1.00961 0.897627 0.799105 0.71658 0.649937 0.597471 0.556895 0.525878 0.50237 0.484657 0.471392 0.46151 0.45421 0.44887 0.445032 0.442339 0.440533 0.439408 0.438821 0.438652 0.438819 0.439249 0.439895 0.440709 0.441662 0.442718 0.443858 0.445052 0.446285 0.447531 0.448777 0.449998 0.451184 0.452312 0.453372 0.454346 0.455225 0.455998 0.456656 0.457192 0.457602 0.45788 0.458021 0.459072 0.45892 0.45862 0.458182 0.457609 0.456911 0.456094 0.45517 0.454148 0.453045 0.45187 0.450644 0.449379 0.448099 0.446818 0.445562 0.444347 0.443203 0.44215 0.441226 0.440459 0.439898 0.439589 0.439607 0.440028 0.440971 0.442574 0.445036 0.448603 0.45362 0.460522 0.469908 0.482541 0.499441 0.521898 0.551563 0.590418 0.640751 0.704865 0.784596 0.880381 0.9902 1.1087 1.22756 1.33738 1.43061 1.50357 1.55679 1.59339 1.61748 1.63275 1.64215 1.64772 1.65089 1.65249 1.65314 1.65315 1.65277 1.65209 1.65124 1.65022 1.6491 1.64786 1.64656 1.64514 1.64365 1.64206 1.6404 1.63863 1.63679 1.63484 1.63281 1.63067 1.62845 1.62612 1.62372 1.6212 1.61862 1.61594 1.6132 1.61038 1.60752 1.6046 1.60168 1.59872 1.5958 1.5929 1.59007 1.58731 1.58467 1.58216 1.57984 1.57769 1.57579 1.57411 1.57272 1.57161 1.57081 1.57032 1.57016 1.57032 1.57081 1.57161 1.57272 1.57411 1.57579 1.57769 1.57984 1.58216 1.58467 1.58731 1.59007 1.5929 1.5958 1.59872 1.60168 1.6046 1.60752 1.61038 1.6132 1.61594 1.61862 1.6212 1.62372 1.62612 1.62845 1.63067 1.63281 1.63484 1.63679 1.63863 1.6404 1.64206 1.64365 1.64513 1.64655 1.64786 1.6491 1.65022 1.65123 1.65209 1.65276 1.65314 1.65314 1.65249 1.65088 1.64772 1.64215 1.63275 1.61748 1.59341 1.55681 1.5036 1.43065 1.33744 1.22762 1.10876 0.990255 0.880423 0.784619 0.704864 0.640724 0.590359 0.551468 0.521762 0.499257 0.482305 0.469612 0.46016 0.453183 0.448087 0.444434 0.441881 0.440182 0.439141 0.43862 0.438502 0.438711 0.439176 0.439851 0.440691 0.441666 0.442744 0.443904 0.445118 0.446371 0.447639 0.448907 0.450154 0.451365 0.452522 0.453612 0.454618 0.455532 0.456338 0.457031 0.457598 0.458035 0.458334 0.458488 0.459495 0.459332 0.459015 0.458554 0.457955 0.457228 0.456382 0.455429 0.454379 0.453249 0.452048 0.450799 0.449512 0.44821 0.446908 0.445631 0.444395 0.443229 0.442153 0.441202 0.440404 0.439806 0.439454 0.439416 0.439768 0.440624 0.442114 0.444428 0.447803 0.452565 0.45913 0.468067 0.480105 0.496215 0.517629 0.545929 0.583027 0.631156 0.692622 0.769382 0.862177 0.96951 1.08667 1.20584 1.31769 1.41418 1.49087 1.54757 1.58702 1.61322 1.62997 1.64036 1.64658 1.65016 1.65204 1.65286 1.65299 1.65268 1.65206 1.65126 1.65027 1.64919 1.64799 1.64671 1.64533 1.64389 1.64235 1.64074 1.63903 1.63727 1.63539 1.63346 1.63141 1.62931 1.6271 1.62484 1.62247 1.62006 1.61755 1.61501 1.6124 1.60976 1.60708 1.6044 1.60171 1.59905 1.59642 1.59386 1.59138 1.58901 1.58677 1.58469 1.58278 1.58108 1.57959 1.57836 1.57737 1.57667 1.57623 1.5761 1.57623 1.57667 1.57737 1.57836 1.57959 1.58108 1.58278 1.58469 1.58677 1.58901 1.59138 1.59386 1.59642 1.59905 1.60171 1.6044 1.60708 1.60976 1.6124 1.61501 1.61755 1.62006 1.62247 1.62484 1.6271 1.62931 1.63141 1.63346 1.63539 1.63726 1.63903 1.64074 1.64234 1.64389 1.64533 1.64671 1.64798 1.64919 1.65027 1.65125 1.65206 1.65268 1.65298 1.65286 1.65204 1.65016 1.64658 1.64036 1.62997 1.61323 1.58704 1.5476 1.49091 1.41423 1.31775 1.20591 1.08673 0.969565 0.862217 0.769401 0.692618 0.631123 0.582961 0.545826 0.517484 0.496021 0.479857 0.467757 0.458752 0.452111 0.447268 0.443806 0.441399 0.439812 0.438857 0.438403 0.43834 0.438592 0.439094 0.4398 0.440666 0.441666 0.442767 0.443948 0.445185 0.44646 0.447751 0.449042 0.450314 0.451552 0.452737 0.453857 0.454895 0.45584 0.456679 0.457402 0.457998 0.45846 0.458777 0.458942 0.459907 0.459735 0.459403 0.458921 0.458297 0.457545 0.456671 0.45569 0.454613 0.453456 0.452231 0.450956 0.449646 0.448322 0.446998 0.445699 0.444441 0.443251 0.44215 0.441171 0.440341 0.439705 0.439307 0.439212 0.439494 0.440259 0.441633 0.443796 0.446973 0.451473 0.457693 0.46617 0.477597 0.492895 0.513238 0.540133 0.575417 0.62126 0.679956 0.753562 0.843107 0.947612 1.06305 1.1822 1.29589 1.39569 1.47637 1.53691 1.57958 1.60822 1.62669 1.63825 1.64524 1.64932 1.65152 1.65256 1.65282 1.65261 1.65205 1.6513 1.65036 1.64931 1.64815 1.64691 1.64557 1.64417 1.64268 1.64113 1.63949 1.63779 1.636 1.63416 1.63222 1.63022 1.62814 1.62601 1.62379 1.62154 1.61921 1.61686 1.61445 1.61203 1.60957 1.60713 1.60469 1.60228 1.59991 1.59762 1.59539 1.59328 1.59128 1.58944 1.58774 1.58624 1.58493 1.58385 1.58298 1.58236 1.58197 1.58185 1.58197 1.58236 1.58298 1.58385 1.58493 1.58624 1.58774 1.58944 1.59128 1.59328 1.59539 1.59762 1.59991 1.60228 1.60469 1.60713 1.60957 1.61203 1.61445 1.61686 1.61921 1.62154 1.62379 1.62601 1.62814 1.63022 1.63222 1.63416 1.636 1.63779 1.63949 1.64113 1.64268 1.64417 1.64557 1.64691 1.64814 1.64931 1.65035 1.65129 1.65205 1.6526 1.65281 1.65255 1.65152 1.64932 1.64524 1.63825 1.62669 1.60823 1.5796 1.53694 1.4764 1.39574 1.29595 1.18226 1.06311 0.947666 0.843145 0.753579 0.679948 0.621222 0.575346 0.540023 0.513085 0.492692 0.477337 0.465847 0.4573 0.451003 0.44642 0.443154 0.440897 0.439424 0.438559 0.438174 0.438167 0.438464 0.439003 0.439741 0.440637 0.441662 0.442786 0.443991 0.44525 0.446548 0.447863 0.449179 0.450476 0.451741 0.452954 0.454103 0.455171 0.456146 0.457014 0.457766 0.458388 0.458872 0.459206 0.459379 0.460305 0.460126 0.45978 0.459279 0.458633 0.457856 0.456957 0.45595 0.454847 0.453664 0.452413 0.451114 0.449781 0.448433 0.447087 0.445765 0.444483 0.443269 0.442142 0.441133 0.44027 0.439595 0.43915 0.438998 0.439208 0.43988 0.441137 0.443146 0.446121 0.450355 0.456223 0.464233 0.475039 0.489512 0.508763 0.534225 0.567655 0.611148 0.666974 0.737264 0.823311 0.92464 1.03793 1.15664 1.2719 1.37499 1.45985 1.5246 1.5709 1.60233 1.62281 1.63575 1.64365 1.64833 1.65091 1.6522 1.65263 1.65253 1.65205 1.65136 1.65047 1.64946 1.64834 1.64714 1.64585 1.6445 1.64306 1.64157 1.64 1.63837 1.63666 1.6349 1.63307 1.63118 1.62922 1.62722 1.62516 1.62306 1.6209 1.61873 1.61652 1.6143 1.61207 1.60985 1.60764 1.60548 1.60335 1.6013 1.59932 1.59745 1.59568 1.59405 1.59256 1.59124 1.5901 1.58915 1.58839 1.58785 1.58751 1.58741 1.58751 1.58785 1.58839 1.58915 1.5901 1.59124 1.59256 1.59405 1.59568 1.59745 1.59932 1.6013 1.60335 1.60548 1.60764 1.60985 1.61207 1.6143 1.61652 1.61873 1.6209 1.62306 1.62516 1.62722 1.62922 1.63118 1.63307 1.6349 1.63666 1.63837 1.64 1.64157 1.64306 1.6445 1.64585 1.64714 1.64834 1.64946 1.65046 1.65135 1.65205 1.65252 1.65262 1.65219 1.65091 1.64832 1.64365 1.63575 1.62282 1.60234 1.57091 1.52463 1.45989 1.37504 1.27197 1.1567 1.03799 0.924693 0.823348 0.737278 0.666963 0.611107 0.567579 0.53411 0.508603 0.4893 0.474769 0.463898 0.455817 0.44987 0.445552 0.442486 0.440381 0.439025 0.43825 0.437936 0.437986 0.438329 0.438906 0.439677 0.440601 0.441653 0.442802 0.44403 0.445313 0.446634 0.447973 0.449314 0.450636 0.451928 0.453168 0.454345 0.455441 0.456445 0.457341 0.458119 0.458764 0.459267 0.459616 0.459797 0.460687 0.460501 0.460142 0.459624 0.458959 0.458159 0.457236 0.456205 0.455076 0.453868 0.452593 0.45127 0.449912 0.448542 0.447172 0.445827 0.444521 0.443282 0.442127 0.441089 0.440192 0.439478 0.438985 0.438775 0.438912 0.439492 0.440629 0.442483 0.445256 0.449221 0.454734 0.462272 0.472451 0.486091 0.504242 0.528255 0.559804 0.600903 0.653779 0.720615 0.802936 0.900744 1.01143 1.12922 1.24569 1.35191 1.44109 1.51041 1.56075 1.59539 1.61821 1.63276 1.64175 1.64714 1.65019 1.65178 1.6524 1.65244 1.65206 1.65143 1.6506 1.64964 1.64857 1.64741 1.64617 1.64487 1.64348 1.64205 1.64054 1.63899 1.63737 1.6357 1.63396 1.63218 1.63034 1.62847 1.62655 1.6246 1.62261 1.62061 1.61858 1.61656 1.61453 1.61253 1.61054 1.6086 1.6067 1.60488 1.60312 1.60147 1.59991 1.59849 1.59718 1.59604 1.59503 1.59421 1.59355 1.59308 1.59279 1.5927 1.59279 1.59308 1.59355 1.59421 1.59503 1.59604 1.59718 1.59849 1.59991 1.60147 1.60312 1.60488 1.6067 1.6086 1.61054 1.61253 1.61453 1.61656 1.61858 1.62061 1.62261 1.6246 1.62655 1.62847 1.63034 1.63218 1.63396 1.6357 1.63737 1.63899 1.64054 1.64205 1.64348 1.64487 1.64617 1.64741 1.64856 1.64964 1.6506 1.65143 1.65206 1.65244 1.6524 1.65177 1.65019 1.64714 1.64175 1.63276 1.61821 1.5954 1.56077 1.51044 1.44114 1.35196 1.24575 1.12929 1.01149 0.900796 0.802971 0.720627 0.653765 0.600858 0.559724 0.528135 0.504076 0.485873 0.472174 0.461928 0.454317 0.448723 0.444671 0.441807 0.439855 0.438617 0.437933 0.437691 0.437797 0.438187 0.438804 0.439607 0.440561 0.441639 0.442813 0.444065 0.445372 0.446717 0.44808 0.449445 0.450793 0.45211 0.453377 0.454581 0.455704 0.456734 0.457656 0.458457 0.459123 0.459644 0.460005 0.460193 0.46105 0.460858 0.460488 0.459955 0.459272 0.458452 0.457506 0.456451 0.455299 0.454067 0.452768 0.451421 0.45004 0.448645 0.447253 0.445883 0.444554 0.443289 0.442108 0.441039 0.440108 0.439354 0.438815 0.438546 0.43861 0.439098 0.440116 0.441815 0.444383 0.448081 0.453238 0.460304 0.469855 0.482662 0.499707 0.522267 0.551923 0.590601 0.640472 0.703743 0.782134 0.876087 0.983705 1.10002 1.21721 1.32632 1.41988 1.49406 1.54889 1.58718 1.61272 1.62919 1.63947 1.64571 1.64932 1.65127 1.65214 1.65233 1.65207 1.65152 1.65075 1.64985 1.64882 1.64772 1.64652 1.64527 1.64394 1.64257 1.64113 1.63965 1.63811 1.63653 1.63489 1.63322 1.6315 1.62975 1.62796 1.62616 1.62433 1.62249 1.62064 1.61881 1.61697 1.61517 1.61338 1.61165 1.60997 1.60835 1.6068 1.60535 1.60399 1.60274 1.60161 1.60062 1.59975 1.59904 1.59847 1.59807 1.59782 1.59774 1.59782 1.59807 1.59847 1.59904 1.59975 1.60062 1.60161 1.60274 1.60399 1.60535 1.6068 1.60835 1.60997 1.61165 1.61338 1.61517 1.61697 1.61881 1.62064 1.6225 1.62433 1.62616 1.62796 1.62975 1.6315 1.63322 1.63489 1.63653 1.63811 1.63965 1.64113 1.64257 1.64394 1.64527 1.64652 1.64771 1.64882 1.64985 1.65075 1.65152 1.65206 1.65233 1.65213 1.65126 1.64931 1.6457 1.63947 1.62919 1.61273 1.58719 1.54892 1.49409 1.41993 1.32637 1.21728 1.10009 0.983767 0.876137 0.782167 0.703753 0.640456 0.590554 0.55184 0.522143 0.499537 0.482437 0.469571 0.459951 0.452811 0.447571 0.443786 0.441123 0.439325 0.438204 0.437612 0.437441 0.437605 0.438041 0.438696 0.439533 0.440516 0.44162 0.44282 0.444096 0.445426 0.446795 0.448181 0.449571 0.450944 0.452286 0.453578 0.454808 0.455956 0.457011 0.457955 0.458778 0.459463 0.459999 0.460371 0.460565 0.461393 0.461195 0.460816 0.46027 0.45957 0.458731 0.457765 0.456688 0.455513 0.454258 0.452935 0.451565 0.450161 0.448743 0.447327 0.445935 0.444581 0.443291 0.442083 0.440984 0.44002 0.439226 0.438639 0.438312 0.438305 0.4387 0.4396 0.441145 0.443511 0.446942 0.451746 0.458342 0.46727 0.479246 0.495193 0.516304 0.544069 0.580318 0.627151 0.686773 0.761058 0.850845 0.954919 1.06918 1.1865 1.29811 1.39599 1.47528 1.53505 1.57747 1.60617 1.62488 1.6367 1.64396 1.64825 1.65064 1.6518 1.65219 1.65206 1.65161 1.65092 1.65008 1.6491 1.64805 1.6469 1.64571 1.64444 1.64313 1.64175 1.64035 1.63888 1.63739 1.63585 1.63428 1.63267 1.63105 1.62939 1.62773 1.62604 1.62436 1.62268 1.62101 1.61936 1.61774 1.61614 1.6146 1.61311 1.61169 1.61033 1.60906 1.60787 1.60679 1.60581 1.60495 1.6042 1.60359 1.6031 1.60276 1.60255 1.60248 1.60255 1.60276 1.6031 1.60359 1.6042 1.60495 1.60581 1.60679 1.60787 1.60906 1.61033 1.61169 1.61311 1.6146 1.61614 1.61774 1.61936 1.62101 1.62268 1.62436 1.62604 1.62773 1.62939 1.63105 1.63267 1.63428 1.63585 1.63739 1.63888 1.64035 1.64175 1.64313 1.64444 1.6457 1.6469 1.64805 1.6491 1.65007 1.65092 1.65161 1.65206 1.65219 1.6518 1.65064 1.64824 1.64396 1.6367 1.62488 1.60617 1.57748 1.53507 1.47531 1.39603 1.29816 1.18656 1.06924 0.954981 0.850894 0.76109 0.686782 0.627133 0.58027 0.543984 0.516177 0.495019 0.479017 0.466979 0.457982 0.45131 0.446423 0.442903 0.44044 0.438795 0.437791 0.437289 0.437189 0.437409 0.437891 0.438584 0.439454 0.440466 0.441597 0.442821 0.444121 0.445475 0.446867 0.448276 0.449689 0.451086 0.452453 0.45377 0.455023 0.456195 0.457273 0.458239 0.45908 0.459783 0.460332 0.460714 0.460914 0.461715 0.461513 0.461125 0.460567 0.459852 0.458996 0.45801 0.456913 0.455717 0.454439 0.453094 0.451701 0.450275 0