# vtk DataFile Version 3.0
Immiscible displacement
ASCII
DATASET RECTILINEAR_GRID
DIMENSIONS 200 200 1
X_COORDINATES 200 double
1 2 3 4 5 6 7 8 9 10 11 12 13 14 15 16 17 18 19 20 21 22 23 24 25 26 27 28 29 30 31 32 33 34 35 36 37 38 39 40 41 42 43 44 45 46 47 48 49 50 51 52 53 54 55 56 57 58 59 60 61 62 63 64 65 66 67 68 69 70 71 72 73 74 75 76 77 78 79 80 81 82 83 84 85 86 87 88 89 90 91 92 93 94 95 96 97 98 99 100 101 102 103 104 105 106 107 108 109 110 111 112 113 114 115 116 117 118 119 120 121 122 123 124 125 126 127 128 129 130 131 132 133 134 135 136 137 138 139 140 141 142 143 144 145 146 147 148 149 150 151 152 153 154 155 156 157 158 159 160 161 162 163 164 165 166 167 168 169 170 171 172 173 174 175 176 177 178 179 180 181 182 183 184 185 186 187 188 189 190 191 192 193 194 195 196 197 198 199 200 
Y_COORDINATES 200 double
1 2 3 4 5 6 7 8 9 10 11 12 13 14 15 16 17 18 19 20 21 22 23 24 25 26 27 28 29 30 31 32 33 34 35 36 37 38 39 40 41 42 43 44 45 46 47 48 49 50 51 52 53 54 55 56 57 58 59 60 61 62 63 64 65 66 67 68 69 70 71 72 73 74 75 76 77 78 79 80 81 82 83 84 85 86 87 88 89 90 91 92 93 94 95 96 97 98 99 100 101 102 103 104 105 106 107 108 109 110 111 112 113 114 115 116 117 118 119 120 121 122 123 124 125 126 127 128 129 130 131 132 133 134 135 136 137 138 139 140 141 142 143 144 145 146 147 148 149 150 151 152 153 154 155 156 157 158 159 160 161 162 163 164 165 166 167 168 169 170 171 172 173 174 175 176 177 178 179 180 181 182 183 184 185 186 187 188 189 190 191 192 193 194 195 196 197 198 199 200 
Z_COORDINATES 1 double
0
POINT_DATA 40000
SCALARS rho double 1
LOOKUP_TABLE default
0.418464 0.41847 0.418532 0.418672 0.418928 0.419308 0.419855 0.420566 0.421485 0.422596 0.423937 0.425474 0.427236 0.429173 0.431302 0.433563 0.43597 0.438459 0.441049 0.443692 0.446424 0.44923 0.452182 0.455323 0.458787 0.462708 0.467323 0.472906 0.47986 0.488685 0.500049 0.514803 0.534033 0.559103 0.591659 0.63363 0.687044 0.753767 0.834828 0.929682 1.03523 1.14566 1.25307 1.34969 1.42991 1.49178 1.53639 1.56684 1.58656 1.5988 1.60592 1.60982 1.61164 1.6123 1.61227 1.61203 1.61171 1.6116 1.61171 1.6122 1.61302 1.6143 1.61593 1.618 1.62042 1.62322 1.62629 1.62967 1.63325 1.63705 1.64095 1.64498 1.64901 1.65308 1.65707 1.661 1.66478 1.66841 1.67182 1.67502 1.67794 1.68059 1.68293 1.68496 1.68666 1.68804 1.6891 1.68987 1.69036 1.6906 1.69062 1.69048 1.6902 1.68985 1.68945 1.68907 1.68872 1.68845 1.68827 1.68822 1.68827 1.68845 1.68872 1.68907 1.68945 1.68985 1.6902 1.69048 1.69062 1.6906 1.69036 1.68987 1.6891 1.68804 1.68666 1.68496 1.68293 1.68059 1.67794 1.67502 1.67182 1.66841 1.66478 1.661 1.65707 1.65308 1.64901 1.64498 1.64095 1.63705 1.63325 1.62967 1.62629 1.62322 1.62042 1.618 1.61593 1.6143 1.61302 1.6122 1.61171 1.6116 1.61171 1.61203 1.61227 1.6123 1.61164 1.60982 1.60592 1.5988 1.58656 1.56684 1.53639 1.49178 1.42991 1.34969 1.25307 1.14566 1.03523 0.929682 0.834828 0.753767 0.687044 0.63363 0.591659 0.559103 0.534033 0.514803 0.500049 0.488685 0.47986 0.472906 0.467323 0.462709 0.458789 0.455325 0.452184 0.449231 0.446425 0.443691 0.441046 0.438452 0.43596 0.433549 0.431284 0.429151 0.427215 0.425455 0.423925 0.422596 0.421504 0.420608 0.419926 0.419409 0.419062 0.418835 0.418722 0.418679 0.418694 0.418724 0.418407 0.418435 0.418525 0.41869 0.418977 0.419382 0.419963 0.420696 0.421647 0.422773 0.424139 0.42568 0.427457 0.429383 0.431515 0.433752 0.436148 0.438603 0.441173 0.443774 0.44648 0.44924 0.452162 0.455256 0.458688 0.462564 0.467145 0.472683 0.479597 0.488371 0.499683 0.514372 0.533525 0.558504 0.590945 0.632787 0.686047 0.752618 0.833528 0.92829 1.03381 1.14434 1.25194 1.34886 1.42939 1.49157 1.5364 1.56705 1.58688 1.59922 1.60639 1.61035 1.61216 1.61286 1.61281 1.61257 1.61222 1.6121 1.61214 1.61261 1.61336 1.61459 1.61614 1.61816 1.62049 1.62323 1.62622 1.62955 1.63305 1.63679 1.64062 1.6446 1.64857 1.6526 1.65654 1.66045 1.66419 1.66781 1.6712 1.6744 1.67732 1.68 1.68235 1.68442 1.68615 1.68759 1.6887 1.68954 1.69008 1.6904 1.69049 1.69042 1.69021 1.68992 1.68958 1.68924 1.68893 1.68869 1.68853 1.68848 1.68853 1.68869 1.68893 1.68924 1.68958 1.68992 1.69021 1.69042 1.69049 1.6904 1.69008 1.68954 1.6887 1.68759 1.68615 1.68442 1.68235 1.68 1.67732 1.6744 1.6712 1.66781 1.66419 1.66045 1.65654 1.6526 1.64857 1.6446 1.64062 1.63679 1.63305 1.62955 1.62622 1.62323 1.62049 1.61816 1.61614 1.61459 1.61336 1.61261 1.61214 1.6121 1.61222 1.61257 1.61281 1.61286 1.61216 1.61035 1.60639 1.59922 1.58688 1.56705 1.5364 1.49157 1.42939 1.34886 1.25194 1.14434 1.03381 0.92829 0.833528 0.752618 0.686047 0.632787 0.590945 0.558504 0.533525 0.514372 0.499682 0.488371 0.479597 0.472683 0.467145 0.462565 0.45869 0.455258 0.452164 0.449241 0.44648 0.443772 0.44117 0.438595 0.436138 0.433737 0.431497 0.429362 0.427437 0.425663 0.424131 0.422778 0.421673 0.420745 0.420043 0.419493 0.419122 0.418862 0.418724 0.418653 0.418643 0.418649 0.418331 0.418383 0.418509 0.418718 0.41905 0.419503 0.42013 0.42091 0.421902 0.423066 0.42446 0.426023 0.427809 0.429737 0.431858 0.434076 0.436441 0.438858 0.441381 0.443929 0.446577 0.449276 0.452134 0.455162 0.458528 0.462335 0.466846 0.47231 0.479146 0.487832 0.499044 0.513614 0.532627 0.557433 0.589668 0.631262 0.684241 0.750509 0.831136 0.925685 1.03114 1.1418 1.24975 1.34716 1.42826 1.49097 1.53626 1.56725 1.58733 1.59984 1.60712 1.61115 1.61301 1.61372 1.61367 1.61341 1.61303 1.61285 1.61283 1.61321 1.61388 1.615 1.61645 1.61835 1.62057 1.62318 1.62606 1.62927 1.63266 1.63629 1.64003 1.64391 1.6478 1.65175 1.65563 1.65948 1.66319 1.66677 1.67016 1.67335 1.67629 1.67898 1.68138 1.6835 1.6853 1.68682 1.68803 1.68897 1.68962 1.69005 1.69026 1.69031 1.69021 1.69002 1.68977 1.68951 1.68927 1.68907 1.68894 1.6889 1.68894 1.68907 1.68927 1.68951 1.68977 1.69002 1.69021 1.69031 1.69026 1.69005 1.68962 1.68897 1.68803 1.68682 1.6853 1.6835 1.68138 1.67898 1.67629 1.67335 1.67016 1.66677 1.66319 1.65948 1.65563 1.65175 1.6478 1.64391 1.64003 1.63629 1.63266 1.62927 1.62606 1.62318 1.62057 1.61835 1.61645 1.615 1.61388 1.61321 1.61283 1.61285 1.61303 1.61341 1.61367 1.61372 1.61301 1.61115 1.60712 1.59984 1.58733 1.56725 1.53626 1.49097 1.42826 1.34716 1.24975 1.1418 1.03114 0.925685 0.831137 0.750509 0.684241 0.631261 0.589668 0.557432 0.532627 0.513614 0.499044 0.487831 0.479146 0.47231 0.466847 0.462336 0.45853 0.455164 0.452135 0.449276 0.446577 0.443927 0.441377 0.43885 0.43643 0.43406 0.43184 0.429717 0.427791 0.42601 0.424458 0.423079 0.421938 0.420972 0.420224 0.419629 0.41921 0.418906 0.418724 0.418612 0.418565 0.418547 0.418254 0.418329 0.418493 0.41875 0.419136 0.419647 0.420331 0.421167 0.422211 0.42342 0.424852 0.426442 0.428244 0.430176 0.432287 0.434483 0.436815 0.439185 0.441654 0.444138 0.446716 0.449337 0.452116 0.45506 0.458341 0.462058 0.466476 0.47184 0.47857 0.487133 0.498208 0.512612 0.531428 0.555991 0.587933 0.629174 0.681749 0.747576 0.827777 0.921989 1.0273 1.13809 1.24646 1.34455 1.42643 1.4899 1.53583 1.56731 1.58775 1.60051 1.60796 1.61209 1.61402 1.61475 1.61471 1.61442 1.61399 1.61374 1.61364 1.61391 1.61446 1.61545 1.61677 1.61852 1.62059 1.62305 1.62578 1.62884 1.63209 1.63559 1.6392 1.64296 1.64676 1.65062 1.65442 1.6582 1.66186 1.66542 1.66878 1.67198 1.67493 1.67766 1.68011 1.68231 1.6842 1.68582 1.68714 1.68821 1.68901 1.68958 1.68993 1.69013 1.69016 1.69011 1.68998 1.68982 1.68966 1.68953 1.68944 1.68941 1.68944 1.68953 1.68966 1.68982 1.68998 1.69011 1.69016 1.69013 1.68993 1.68958 1.68901 1.68821 1.68714 1.68582 1.6842 1.68231 1.68011 1.67766 1.67493 1.67198 1.66878 1.66542 1.66186 1.6582 1.65442 1.65062 1.64676 1.64296 1.6392 1.63559 1.63209 1.62884 1.62578 1.62305 1.62059 1.61852 1.61677 1.61545 1.61446 1.61391 1.61364 1.61374 1.61399 1.61442 1.61471 1.61475 1.61402 1.61209 1.60796 1.60051 1.58775 1.56731 1.53583 1.4899 1.42643 1.34455 1.24646 1.13809 1.0273 0.921989 0.827777 0.747576 0.681749 0.629174 0.587933 0.55599 0.531428 0.512612 0.498208 0.487133 0.47857 0.47184 0.466477 0.462058 0.458342 0.455062 0.452118 0.449338 0.446715 0.444135 0.441648 0.439176 0.436802 0.434467 0.432269 0.430157 0.42823 0.426434 0.424858 0.423444 0.42226 0.421244 0.420443 0.419792 0.419317 0.418958 0.418724 0.418566 0.418482 0.418441 0.418185 0.41828 0.418481 0.418787 0.419229 0.419801 0.420547 0.421445 0.422545 0.423806 0.425279 0.426901 0.428723 0.430661 0.432765 0.43494 0.437237 0.439561 0.441971 0.444387 0.446888 0.449427 0.452117 0.454966 0.458148 0.461761 0.46607 0.471314 0.477914 0.486328 0.497231 0.511428 0.529994 0.554249 0.585817 0.626603 0.678651 0.743895 0.823519 0.917251 1.02231 1.13319 1.24205 1.34095 1.4238 1.48823 1.535 1.56713 1.58805 1.60113 1.60881 1.61308 1.6151 1.61586 1.61583 1.6155 1.61502 1.61469 1.6145 1.61465 1.61506 1.6159 1.61706 1.61864 1.62054 1.62283 1.62539 1.62827 1.63137 1.63471 1.63818 1.64181 1.64549 1.64924 1.65296 1.65667 1.66028 1.6638 1.66715 1.67035 1.67332 1.67609 1.67861 1.68088 1.68287 1.68461 1.68607 1.68728 1.68823 1.68897 1.68949 1.68985 1.69005 1.69014 1.69014 1.69011 1.69004 1.68997 1.68992 1.68991 1.68992 1.68997 1.69004 1.69011 1.69014 1.69014 1.69005 1.68985 1.68949 1.68897 1.68823 1.68728 1.68607 1.68461 1.68287 1.68088 1.67861 1.67609 1.67332 1.67035 1.66715 1.6638 1.66028 1.65667 1.65296 1.64924 1.64549 1.64181 1.63818 1.63471 1.63137 1.62827 1.62539 1.62283 1.62054 1.61864 1.61706 1.6159 1.61506 1.61465 1.6145 1.61469 1.61502 1.6155 1.61583 1.61586 1.6151 1.61308 1.60881 1.60113 1.58805 1.56713 1.535 1.48823 1.4238 1.34095 1.24205 1.13319 1.02231 0.917251 0.823519 0.743895 0.678651 0.626603 0.585817 0.554249 0.529994 0.511428 0.497231 0.486328 0.477914 0.471314 0.466071 0.461762 0.45815 0.454967 0.452118 0.449426 0.446887 0.444383 0.441965 0.43955 0.437223 0.434923 0.432747 0.430644 0.428712 0.426899 0.425294 0.423841 0.422608 0.421539 0.420678 0.419967 0.419431 0.419014 0.418726 0.418523 0.418404 0.418343 0.418127 0.418241 0.418476 0.418827 0.419325 0.419957 0.420766 0.421727 0.422886 0.4242 0.425718 0.427375 0.429218 0.431167 0.433265 0.435423 0.437687 0.439966 0.442319 0.444667 0.447091 0.449543 0.45214 0.45489 0.457966 0.461466 0.465653 0.470763 0.477214 0.485455 0.496156 0.510108 0.528375 0.552259 0.583371 0.623601 0.674995 0.739507 0.818388 0.911477 1.01616 1.12706 1.23643 1.33625 1.42026 1.48586 1.53366 1.56661 1.58813 1.60163 1.6096 1.61405 1.61617 1.61699 1.61697 1.61661 1.61608 1.61566 1.61536 1.61537 1.61565 1.61632 1.6173 1.6187 1.62041 1.6225 1.62488 1.62758 1.6305 1.63367 1.63699 1.64048 1.64403 1.64767 1.65129 1.65493 1.65848 1.66196 1.66529 1.66849 1.67149 1.67431 1.67689 1.67925 1.68135 1.68321 1.68481 1.68618 1.6873 1.68821 1.68891 1.68944 1.68981 1.69006 1.69021 1.6903 1.69033 1.69034 1.69034 1.69034 1.69034 1.69034 1.69033 1.6903 1.69021 1.69006 1.68981 1.68944 1.68891 1.68821 1.6873 1.68618 1.68481 1.68321 1.68135 1.67925 1.67689 1.67431 1.67149 1.66849 1.66529 1.66196 1.65848 1.65493 1.65129 1.64767 1.64403 1.64048 1.63699 1.63367 1.6305 1.62758 1.62488 1.6225 1.62041 1.6187 1.6173 1.61632 1.61565 1.61537 1.61536 1.61566 1.61608 1.61661 1.61697 1.61699 1.61617 1.61405 1.6096 1.60163 1.58813 1.56661 1.53366 1.48586 1.42026 1.33625 1.23643 1.12706 1.01616 0.911476 0.818389 0.739506 0.674995 0.623601 0.583371 0.552259 0.528375 0.510108 0.496156 0.485455 0.477214 0.470764 0.465654 0.461467 0.457968 0.454892 0.452141 0.449543 0.447089 0.444662 0.442311 0.439954 0.437672 0.435405 0.433248 0.431151 0.429211 0.427379 0.42574 0.424246 0.422963 0.421838 0.420917 0.420144 0.419547 0.419073 0.418733 0.418486 0.418335 0.418258 0.418081 0.418211 0.418476 0.418871 0.41942 0.420111 0.42098 0.422002 0.423219 0.424587 0.42615 0.427844 0.429712 0.431673 0.43377 0.435914 0.438149 0.440388 0.442686 0.444971 0.447318 0.449687 0.452191 0.454841 0.457807 0.461188 0.465245 0.47021 0.476495 0.484544 0.495014 0.508684 0.526605 0.550053 0.580627 0.620194 0.670801 0.734419 0.812376 0.904633 1.00877 1.1196 1.22948 1.33032 1.41567 1.48267 1.53172 1.56565 1.58792 1.60194 1.61026 1.61494 1.61721 1.61809 1.61809 1.61771 1.61713 1.61662 1.61621 1.61608 1.6162 1.61669 1.61749 1.61869 1.6202 1.62209 1.62426 1.62677 1.6295 1.63249 1.63564 1.63898 1.6424 1.64592 1.64945 1.653 1.65648 1.65992 1.66323 1.66644 1.66946 1.67232 1.67497 1.67742 1.67963 1.68162 1.68336 1.68489 1.68618 1.68727 1.68815 1.68886 1.68941 1.68982 1.69012 1.69033 1.69047 1.69056 1.6906 1.69062 1.6906 1.69056 1.69047 1.69033 1.69012 1.68982 1.68941 1.68886 1.68815 1.68727 1.68618 1.68489 1.68336 1.68162 1.67963 1.67742 1.67497 1.67232 1.66946 1.66644 1.66323 1.65992 1.65648 1.653 1.64945 1.64592 1.6424 1.63898 1.63564 1.63249 1.6295 1.62677 1.62426 1.62209 1.6202 1.61869 1.61749 1.61669 1.6162 1.61608 1.61621 1.61662 1.61713 1.61771 1.61809 1.61809 1.61721 1.61494 1.61026 1.60194 1.58792 1.56565 1.53172 1.48267 1.41567 1.33032 1.22948 1.1196 1.00877 0.904633 0.812376 0.734419 0.670801 0.620194 0.580627 0.550053 0.526605 0.508684 0.495014 0.484544 0.476496 0.470211 0.465246 0.461189 0.457809 0.454842 0.452192 0.449687 0.447316 0.444965 0.442678 0.440375 0.438134 0.435896 0.433753 0.43166 0.429707 0.427854 0.426181 0.424645 0.423311 0.42213 0.421149 0.420317 0.41966 0.419132 0.418743 0.418457 0.418278 0.418186 0.418046 0.41819 0.418482 0.418915 0.419512 0.420257 0.421183 0.422264 0.423537 0.424958 0.426565 0.428297 0.43019 0.432168 0.434266 0.436401 0.438612 0.440816 0.443065 0.445291 0.447568 0.449858 0.45227 0.454822 0.457678 0.460939 0.46486 0.469672 0.475778 0.483615 0.493829 0.507182 0.524706 0.547656 0.577606 0.616399 0.666076 0.728627 0.805457 0.896671 1.00007 1.11069 1.22106 1.323 1.40988 1.47851 1.52904 1.56417 1.58735 1.602 1.61076 1.61572 1.61816 1.61914 1.61918 1.61878 1.61815 1.61755 1.61702 1.61675 1.61671 1.61702 1.61762 1.61862 1.61992 1.62159 1.62356 1.62585 1.62839 1.63119 1.63417 1.63734 1.64062 1.64401 1.64743 1.65089 1.65432 1.65771 1.661 1.6642 1.66725 1.67015 1.67286 1.6754 1.67772 1.67983 1.68172 1.68341 1.68487 1.68613 1.68719 1.68808 1.6888 1.68938 1.68982 1.69016 1.6904 1.69057 1.69066 1.69069 1.69066 1.69057 1.6904 1.69016 1.68982 1.68938 1.6888 1.68808 1.68719 1.68613 1.68487 1.68341 1.68172 1.67983 1.67772 1.6754 1.67286 1.67015 1.66725 1.6642 1.661 1.65771 1.65432 1.65089 1.64743 1.64401 1.64062 1.63734 1.63417 1.63119 1.62839 1.62585 1.62356 1.62159 1.61992 1.61862 1.61762 1.61702 1.61671 1.61675 1.61702 1.61755 1.61815 1.61878 1.61918 1.61914 1.61816 1.61572 1.61076 1.602 1.58735 1.56417 1.52904 1.47851 1.40988 1.323 1.22106 1.11069 1.00007 0.896671 0.805457 0.728627 0.666076 0.616399 0.577606 0.547656 0.524706 0.507182 0.493829 0.483615 0.475779 0.469673 0.464861 0.46094 0.45768 0.454823 0.452271 0.449856 0.447565 0.445285 0.443055 0.440802 0.438595 0.436382 0.434249 0.432155 0.430188 0.428311 0.426603 0.425025 0.42364 0.422407 0.421369 0.42048 0.419768 0.41919 0.418757 0.418436 0.418231 0.418127 0.41802 0.418175 0.418491 0.418959 0.419597 0.420392 0.42137 0.422506 0.423831 0.425303 0.426953 0.428723 0.430643 0.43264 0.434743 0.436874 0.439066 0.441242 0.443449 0.445624 0.447836 0.450053 0.45238 0.454837 0.457585 0.460725 0.464507 0.469159 0.475075 0.482683 0.492614 0.505615 0.522695 0.54508 0.574317 0.612219 0.660817 0.722114 0.797597 0.887526 0.989961 1.10021 1.21098 1.31411 1.4027 1.4732 1.52549 1.56206 1.58632 1.60175 1.61104 1.61635 1.61902 1.62012 1.62021 1.61981 1.61913 1.61844 1.6178 1.61738 1.61718 1.6173 1.61771 1.61849 1.61957 1.62102 1.62277 1.62485 1.62718 1.62978 1.63258 1.63558 1.63871 1.64197 1.64528 1.64864 1.652 1.65534 1.6586 1.66179 1.66486 1.6678 1.67058 1.67319 1.67561 1.67785 1.67988 1.68171 1.68333 1.68476 1.686 1.68705 1.68794 1.68867 1.68925 1.68971 1.69005 1.69029 1.69043 1.69047 1.69043 1.69029 1.69005 1.68971 1.68925 1.68867 1.68794 1.68705 1.686 1.68476 1.68333 1.68171 1.67988 1.67785 1.67561 1.67319 1.67058 1.6678 1.66486 1.66179 1.6586 1.65534 1.652 1.64864 1.64528 1.64197 1.63871 1.63558 1.63258 1.62978 1.62718 1.62485 1.62277 1.62102 1.61957 1.61849 1.61771 1.6173 1.61718 1.61738 1.6178 1.61844 1.61913 1.61981 1.62021 1.62012 1.61902 1.61635 1.61104 1.60175 1.58632 1.56206 1.52549 1.4732 1.4027 1.31411 1.21098 1.10021 0.989961 0.887526 0.797597 0.722114 0.660817 0.612219 0.574317 0.54508 0.522695 0.505615 0.492614 0.482683 0.475076 0.46916 0.464509 0.460727 0.457587 0.454838 0.45238 0.450051 0.447832 0.445617 0.443438 0.441227 0.439049 0.436855 0.434726 0.432628 0.430644 0.428742 0.426998 0.425379 0.423946 0.422662 0.421571 0.420631 0.419868 0.419245 0.418772 0.41842 0.418194 0.418079 0.417998 0.418164 0.4185 0.418998 0.419674 0.420513 0.421539 0.422725 0.424098 0.425618 0.427309 0.429117 0.431064 0.433082 0.435195 0.437326 0.439506 0.441661 0.443833 0.445964 0.448119 0.450271 0.452519 0.454887 0.457531 0.460552 0.464194 0.468681 0.474396 0.481759 0.491383 0.503997 0.520582 0.542336 0.570769 0.607661 0.655023 0.714868 0.788765 0.877145 0.97835 1.08801 1.19909 1.30344 1.39392 1.46657 1.5209 1.55918 1.58475 1.60112 1.61106 1.61679 1.61974 1.621 1.62117 1.62078 1.62006 1.61929 1.61854 1.61798 1.61761 1.61754 1.61775 1.61831 1.61917 1.62039 1.62191 1.62377 1.62588 1.62828 1.63089 1.63371 1.63668 1.6398 1.64299 1.64626 1.64953 1.65282 1.65605 1.65923 1.66231 1.66528 1.66811 1.6708 1.67332 1.67567 1.67782 1.67979 1.68156 1.68315 1.68455 1.68576 1.6868 1.68768 1.68839 1.68896 1.68939 1.6897 1.68988 1.68994 1.68988 1.6897 1.68939 1.68896 1.68839 1.68768 1.6868 1.68576 1.68455 1.68315 1.68156 1.67979 1.67782 1.67567 1.67332 1.6708 1.66811 1.66528 1.66231 1.65923 1.65605 1.65282 1.64953 1.64626 1.64299 1.6398 1.63668 1.63371 1.63089 1.62828 1.62588 1.62377 1.62191 1.62039 1.61917 1.61831 1.61775 1.61754 1.61761 1.61798 1.61854 1.61929 1.62006 1.62078 1.62117 1.621 1.61974 1.61679 1.61106 1.60112 1.58475 1.55918 1.5209 1.46657 1.39392 1.30344 1.19909 1.08801 0.97835 0.877145 0.788765 0.714868 0.655023 0.607661 0.570769 0.542336 0.520582 0.503997 0.491383 0.481759 0.474397 0.468682 0.464195 0.460554 0.457532 0.454888 0.452519 0.450269 0.448115 0.445956 0.443821 0.441645 0.439487 0.437306 0.435177 0.433071 0.431067 0.429139 0.427359 0.425701 0.424222 0.422892 0.421751 0.420765 0.419957 0.419294 0.418786 0.418407 0.418163 0.418038 0.41798 0.418155 0.418508 0.419032 0.41974 0.420618 0.421685 0.422917 0.424334 0.425898 0.427628 0.429473 0.431448 0.433489 0.435614 0.437752 0.439925 0.442066 0.444211 0.446308 0.448414 0.450509 0.452686 0.454972 0.457516 0.460421 0.463922 0.46824 0.473745 0.480848 0.490141 0.502333 0.518376 0.539431 0.566969 0.602729 0.648694 0.706882 0.778941 0.865482 0.965158 1.07397 1.18521 1.29077 1.38331 1.45839 1.51509 1.55538 1.58252 1.60002 1.61076 1.61702 1.6203 1.62176 1.62204 1.62168 1.62094 1.6201 1.61925 1.61854 1.61801 1.61775 1.61775 1.61809 1.61873 1.61972 1.621 1.62263 1.62452 1.62671 1.62911 1.63176 1.63456 1.63753 1.6406 1.64376 1.64695 1.65017 1.65336 1.65652 1.6596 1.6626 1.66548 1.66823 1.67083 1.67328 1.67555 1.67764 1.67955 1.68128 1.68282 1.68418 1.68535 1.68636 1.68719 1.68786 1.68838 1.68874 1.68896 1.68903 1.68896 1.68874 1.68838 1.68786 1.68719 1.68636 1.68535 1.68418 1.68282 1.68128 1.67955 1.67764 1.67555 1.67328 1.67083 1.66823 1.66548 1.6626 1.6596 1.65652 1.65336 1.65017 1.64695 1.64376 1.6406 1.63753 1.63456 1.63176 1.62911 1.62671 1.62452 1.62263 1.621 1.61972 1.61873 1.61809 1.61775 1.61775 1.61801 1.61854 1.61925 1.6201 1.62094 1.62168 1.62204 1.62176 1.6203 1.61702 1.61076 1.60002 1.58252 1.55538 1.51509 1.45839 1.38331 1.29077 1.18521 1.07397 0.965158 0.865482 0.778941 0.706882 0.648694 0.602729 0.566969 0.539431 0.518376 0.502333 0.490141 0.480848 0.473746 0.468241 0.463923 0.460423 0.457517 0.454973 0.452686 0.450508 0.44841 0.4463 0.444199 0.44205 0.439905 0.437731 0.435596 0.433479 0.431451 0.429497 0.427682 0.425986 0.424465 0.423093 0.421908 0.420881 0.420033 0.419335 0.418798 0.418396 0.418136 0.418004 0.417962 0.418144 0.418512 0.419058 0.419794 0.420705 0.421808 0.423079 0.424535 0.42614 0.427907 0.429786 0.43179 0.433857 0.435997 0.438146 0.440318 0.442454 0.44458 0.446651 0.448718 0.450765 0.452878 0.45509 0.457539 0.460333 0.463693 0.467839 0.473126 0.479955 0.488895 0.500632 0.516084 0.536375 0.562928 0.597435 0.641844 0.698168 0.76813 0.852524 0.950336 1.05799 1.16917 1.2759 1.37062 1.44841 1.50783 1.55048 1.57949 1.59836 1.61006 1.61696 1.62067 1.62238 1.62281 1.62251 1.62176 1.62086 1.61991 1.61908 1.61838 1.61793 1.61773 1.61785 1.61825 1.619 1.62006 1.62144 1.62311 1.62507 1.62728 1.62973 1.63236 1.63517 1.63811 1.64115 1.64425 1.6474 1.65055 1.65368 1.65676 1.65977 1.66268 1.66549 1.66816 1.67069 1.67305 1.67526 1.67729 1.67914 1.6808 1.68229 1.68358 1.6847 1.68564 1.6864 1.68699 1.68741 1.68766 1.68774 1.68766 1.68741 1.68699 1.6864 1.68564 1.6847 1.68358 1.68229 1.6808 1.67914 1.67729 1.67526 1.67305 1.67069 1.66816 1.66549 1.66268 1.65977 1.65676 1.65368 1.65055 1.6474 1.64425 1.64115 1.63811 1.63517 1.63236 1.62973 1.62728 1.62507 1.62311 1.62144 1.62006 1.619 1.61825 1.61785 1.61773 1.61793 1.61838 1.61908 1.61991 1.62086 1.62176 1.62251 1.62281 1.62238 1.62067 1.61696 1.61006 1.59836 1.57949 1.55048 1.50783 1.44841 1.37062 1.2759 1.16917 1.05799 0.950336 0.852524 0.76813 0.698168 0.641844 0.597435 0.562928 0.536375 0.516084 0.500632 0.488895 0.479955 0.473127 0.46784 0.463694 0.460334 0.457541 0.455091 0.452878 0.450763 0.448713 0.446642 0.444567 0.442437 0.440298 0.438125 0.435979 0.433846 0.431794 0.429812 0.427962 0.426232 0.424672 0.423263 0.422039 0.420976 0.420094 0.419368 0.418805 0.418385 0.418112 0.417974 0.417942 0.418131 0.41851 0.419075 0.419833 0.420772 0.421905 0.42321 0.4247 0.426341 0.428141 0.430055 0.432086 0.43418 0.436339 0.438504 0.440682 0.442818 0.444933 0.446988 0.449025 0.451034 0.453092 0.455237 0.457599 0.460284 0.463505 0.467477 0.47254 0.47908 0.487646 0.498898 0.513715 0.533179 0.558661 0.5918 0.634496 0.688753 0.756355 0.838281 0.933867 1.04001 1.15085 1.25863 1.35561 1.43638 1.49888 1.54429 1.5755 1.59601 1.60887 1.61657 1.6208 1.62284 1.62346 1.62325 1.62252 1.62158 1.62054 1.61958 1.61873 1.6181 1.61769 1.61759 1.61777 1.61828 1.61909 1.62023 1.62167 1.62341 1.6254 1.62765 1.63011 1.63276 1.63555 1.63847 1.64147 1.64454 1.64763 1.65072 1.65378 1.6568 1.65973 1.66257 1.6653 1.66789 1.67034 1.67264 1.67476 1.67672 1.67849 1.68008 1.68148 1.6827 1.68372 1.68456 1.6852 1.68567 1.68594 1.68604 1.68594 1.68567 1.6852 1.68456 1.68372 1.6827 1.68148 1.68008 1.67849 1.67672 1.67476 1.67264 1.67034 1.66789 1.6653 1.66257 1.65973 1.6568 1.65378 1.65072 1.64763 1.64454 1.64147 1.63847 1.63555 1.63276 1.63011 1.62765 1.6254 1.62341 1.62167 1.62023 1.61909 1.61828 1.61777 1.61759 1.61769 1.6181 1.61873 1.61958 1.62054 1.62158 1.62252 1.62325 1.62346 1.62284 1.6208 1.61657 1.60887 1.59601 1.5755 1.54429 1.49888 1.43638 1.35561 1.25862 1.15085 1.04001 0.933867 0.838281 0.756355 0.688753 0.634496 0.5918 0.558661 0.533179 0.513715 0.498897 0.487646 0.47908 0.47254 0.467478 0.463506 0.460286 0.4576 0.455239 0.453093 0.451032 0.44902 0.446979 0.44492 0.442801 0.440661 0.438481 0.43632 0.434169 0.43209 0.430081 0.428198 0.426436 0.424841 0.423399 0.422141 0.421049 0.420139 0.41939 0.418807 0.418373 0.418089 0.417946 0.41792 0.418114 0.418502 0.419081 0.419856 0.420818 0.421975 0.423309 0.424827 0.4265 0.428329 0.430275 0.432334 0.434455 0.436636 0.438821 0.44101 0.443155 0.445268 0.447315 0.449331 0.451311 0.453323 0.45541 0.45769 0.460273 0.463356 0.467153 0.471985 0.478227 0.4864 0.497137 0.511278 0.529859 0.554193 0.585855 0.626695 0.67869 0.743676 0.822811 0.915785 1.02001 1.13014 1.23876 1.33803 1.422 1.48797 1.53654 1.57036 1.59283 1.6071 1.61576 1.62064 1.62309 1.62396 1.62388 1.6232 1.62224 1.62113 1.62005 1.61906 1.61825 1.61765 1.61733 1.61728 1.61755 1.61812 1.61902 1.62022 1.62173 1.6235 1.62555 1.62781 1.63029 1.63294 1.63573 1.63862 1.6416 1.64462 1.64766 1.65069 1.6537 1.65664 1.6595 1.66227 1.66491 1.66743 1.66979 1.672 1.67404 1.6759 1.67757 1.67906 1.68035 1.68144 1.68234 1.68304 1.68354 1.68384 1.68394 1.68384 1.68354 1.68304 1.68234 1.68144 1.68035 1.67906 1.67757 1.6759 1.67404 1.672 1.66979 1.66743 1.66491 1.66227 1.6595 1.65664 1.6537 1.65069 1.64766 1.64462 1.6416 1.63862 1.63573 1.63294 1.63029 1.62781 1.62555 1.6235 1.62173 1.62022 1.61902 1.61812 1.61755 1.61728 1.61733 1.61765 1.61825 1.61906 1.62005 1.62113 1.62224 1.6232 1.62388 1.62396 1.62309 1.62064 1.61576 1.6071 1.59283 1.57036 1.53654 1.48797 1.422 1.33803 1.23876 1.13014 1.02001 0.915785 0.822811 0.743676 0.67869 0.626695 0.585855 0.554192 0.529859 0.511278 0.497137 0.4864 0.478227 0.471986 0.467154 0.463358 0.460274 0.457692 0.455411 0.453324 0.451309 0.449326 0.447306 0.445254 0.443137 0.440989 0.438798 0.436616 0.434443 0.432337 0.430301 0.428387 0.426596 0.424969 0.4235 0.422215 0.421099 0.420168 0.419401 0.418803 0.418358 0.418067 0.41792 0.417895 0.418092 0.418487 0.419075 0.419863 0.420841 0.422017 0.423373 0.424914 0.426614 0.42847 0.430444 0.43253 0.43468 0.436884 0.439093 0.441299 0.443459 0.445577 0.447625 0.449629 0.451589 0.453565 0.455601 0.457808 0.460293 0.463242 0.466864 0.471461 0.477395 0.485158 0.495357 0.508786 0.526434 0.549548 0.57964 0.618492 0.668048 0.730177 0.806203 0.896169 0.998017 1.10703 1.21618 1.31764 1.40497 1.47477 1.52697 1.56382 1.58863 1.6046 1.61444 1.62012 1.62309 1.62429 1.62439 1.6238 1.62284 1.62169 1.62051 1.61938 1.6184 1.61761 1.61708 1.6168 1.61683 1.61716 1.61782 1.61878 1.62005 1.62161 1.62344 1.62551 1.62781 1.6303 1.63295 1.63572 1.6386 1.64154 1.64452 1.64751 1.65049 1.65342 1.65629 1.65907 1.66175 1.66431 1.66673 1.66899 1.67109 1.67301 1.67475 1.6763 1.67766 1.67881 1.67975 1.68049 1.68102 1.68133 1.68144 1.68133 1.68102 1.68049 1.67975 1.67881 1.67766 1.6763 1.67475 1.67301 1.67109 1.66899 1.66673 1.66431 1.66175 1.65907 1.65629 1.65342 1.65049 1.64751 1.64452 1.64154 1.6386 1.63572 1.63295 1.6303 1.62781 1.62551 1.62344 1.62161 1.62005 1.61878 1.61782 1.61716 1.61683 1.6168 1.61708 1.61761 1.6184 1.61938 1.62051 1.62169 1.62284 1.6238 1.62439 1.62429 1.62309 1.62012 1.61444 1.6046 1.58863 1.56382 1.52697 1.47477 1.40497 1.31764 1.21618 1.10703 0.998017 0.896169 0.806203 0.730177 0.668048 0.618492 0.57964 0.549548 0.526434 0.508786 0.495357 0.485158 0.477395 0.471462 0.466865 0.463244 0.460294 0.45781 0.455603 0.453566 0.451587 0.449624 0.447616 0.445564 0.443441 0.441277 0.439069 0.436863 0.434667 0.432532 0.430469 0.428526 0.42671 0.425057 0.423565 0.422259 0.421126 0.420179 0.4194 0.418792 0.41834 0.418044 0.417895 0.417867 0.418066 0.418464 0.419059 0.419854 0.420843 0.42203 0.423403 0.424961 0.426682 0.428561 0.430561 0.432672 0.434851 0.437081 0.439316 0.441544 0.443725 0.445856 0.447912 0.449914 0.451863 0.453812 0.455806 0.457946 0.460339 0.463159 0.466606 0.470966 0.476584 0.483926 0.493566 0.506255 0.522928 0.544766 0.573208 0.609961 0.656923 0.715979 0.788597 0.875158 0.974152 1.08152 1.19079 1.29424 1.38502 1.45897 1.51525 1.55562 1.5832 1.60122 1.61249 1.61916 1.62278 1.6244 1.62475 1.62429 1.62337 1.62219 1.62094 1.61969 1.61856 1.61759 1.61685 1.61635 1.61615 1.61624 1.61666 1.61737 1.61841 1.61974 1.62135 1.62323 1.62534 1.62765 1.63015 1.6328 1.63556 1.63841 1.64132 1.64425 1.64719 1.65009 1.65295 1.65574 1.65843 1.66101 1.66346 1.66576 1.6679 1.66987 1.67166 1.67325 1.67465 1.67584 1.67682 1.67759 1.67814 1.67847 1.67858 1.67847 1.67814 1.67759 1.67682 1.67584 1.67465 1.67325 1.67166 1.66987 1.6679 1.66576 1.66346 1.66101 1.65843 1.65574 1.65295 1.65009 1.64719 1.64425 1.64132 1.63841 1.63556 1.6328 1.63015 1.62765 1.62534 1.62323 1.62135 1.61974 1.61841 1.61737 1.61666 1.61624 1.61615 1.61635 1.61685 1.61759 1.61856 1.61969 1.62094 1.62219 1.62337 1.62429 1.62475 1.6244 1.62278 1.61916 1.61249 1.60122 1.5832 1.55562 1.51525 1.45897 1.38502 1.29424 1.19079 1.08152 0.974152 0.875158 0.788597 0.715979 0.656923 0.609961 0.573208 0.544766 0.522928 0.506255 0.493566 0.483926 0.476585 0.470967 0.466607 0.46316 0.460341 0.457948 0.455807 0.453812 0.451861 0.449909 0.447903 0.445842 0.443706 0.441522 0.439292 0.437059 0.434836 0.432673 0.430584 0.428615 0.426777 0.425103 0.423595 0.422273 0.42113 0.420172 0.419387 0.418774 0.41832 0.418022 0.417872 0.417836 0.418035 0.418435 0.419031 0.419828 0.420822 0.422015 0.423398 0.424967 0.426705 0.4286 0.430624 0.432758 0.434964 0.437221 0.439486 0.44174 0.443947 0.446097 0.44817 0.450178 0.452124 0.454055 0.456015 0.458097 0.460404 0.463099 0.466374 0.470496 0.475795 0.482706 0.491773 0.5037 0.519367 0.539885 0.566615 0.601183 0.645424 0.701222 0.770161 0.852936 0.94858 1.05375 1.16261 1.2677 1.36188 1.44022 1.50103 1.54545 1.57629 1.59675 1.60978 1.61766 1.62209 1.62424 1.62492 1.62465 1.62382 1.62265 1.62134 1.62 1.61873 1.61759 1.61666 1.61595 1.61552 1.61538 1.61555 1.61603 1.61682 1.61792 1.61932 1.62098 1.6229 1.62504 1.62738 1.62988 1.63252 1.63526 1.63808 1.64094 1.64382 1.64668 1.64951 1.65228 1.65496 1.65754 1.66 1.66232 1.66449 1.66648 1.66829 1.66992 1.67134 1.67255 1.67355 1.67434 1.6749 1.67524 1.67535 1.67524 1.6749 1.67434 1.67355 1.67255 1.67134 1.66992 1.66829 1.66648 1.66449 1.66232 1.66 1.65754 1.65496 1.65228 1.64951 1.64668 1.64382 1.64094 1.63808 1.63526 1.63252 1.62988 1.62738 1.62504 1.6229 1.62098 1.61932 1.61792 1.61682 1.61603 1.61555 1.61538 1.61552 1.61595 1.61666 1.61759 1.61873 1.62 1.62134 1.62265 1.62382 1.62465 1.62492 1.62424 1.62209 1.61766 1.60978 1.59675 1.57629 1.54545 1.50103 1.44022 1.36188 1.2677 1.16261 1.05375 0.94858 0.852936 0.770161 0.701222 0.645424 0.601183 0.566615 0.539885 0.519366 0.5037 0.491773 0.482706 0.475795 0.470497 0.466375 0.4631 0.460406 0.458099 0.456017 0.454056 0.452123 0.450173 0.448162 0.446084 0.443928 0.441717 0.439461 0.437198 0.434948 0.432757 0.430645 0.428653 0.426797 0.425107 0.423588 0.422257 0.42111 0.420149 0.419364 0.418751 0.418297 0.418 0.417851 0.417804 0.418002 0.418399 0.418993 0.419788 0.42078 0.421973 0.423358 0.424933 0.42668 0.428589 0.430631 0.432786 0.435018 0.437302 0.439598 0.441882 0.444119 0.446296 0.448392 0.450413 0.452366 0.454287 0.456