# vtk DataFile Version 3.0
Immiscible displacement
ASCII
DATASET RECTILINEAR_GRID
DIMENSIONS 400 100 1
X_COORDINATES 400 double
1 2 3 4 5 6 7 8 9 10 11 12 13 14 15 16 17 18 19 20 21 22 23 24 25 26 27 28 29 30 31 32 33 34 35 36 37 38 39 40 41 42 43 44 45 46 47 48 49 50 51 52 53 54 55 56 57 58 59 60 61 62 63 64 65 66 67 68 69 70 71 72 73 74 75 76 77 78 79 80 81 82 83 84 85 86 87 88 89 90 91 92 93 94 95 96 97 98 99 100 101 102 103 104 105 106 107 108 109 110 111 112 113 114 115 116 117 118 119 120 121 122 123 124 125 126 127 128 129 130 131 132 133 134 135 136 137 138 139 140 141 142 143 144 145 146 147 148 149 150 151 152 153 154 155 156 157 158 159 160 161 162 163 164 165 166 167 168 169 170 171 172 173 174 175 176 177 178 179 180 181 182 183 184 185 186 187 188 189 190 191 192 193 194 195 196 197 198 199 200 201 202 203 204 205 206 207 208 209 210 211 212 213 214 215 216 217 218 219 220 221 222 223 224 225 226 227 228 229 230 231 232 233 234 235 236 237 238 239 240 241 242 243 244 245 246 247 248 249 250 251 252 253 254 255 256 257 258 259 260 261 262 263 264 265 266 267 268 269 270 271 272 273 274 275 276 277 278 279 280 281 282 283 284 285 286 287 288 289 290 291 292 293 294 295 296 297 298 299 300 301 302 303 304 305 306 307 308 309 310 311 312 313 314 315 316 317 318 319 320 321 322 323 324 325 326 327 328 329 330 331 332 333 334 335 336 337 338 339 340 341 342 343 344 345 346 347 348 349 350 351 352 353 354 355 356 357 358 359 360 361 362 363 364 365 366 367 368 369 370 371 372 373 374 375 376 377 378 379 380 381 382 383 384 385 386 387 388 389 390 391 392 393 394 395 396 397 398 399 400 
Y_COORDINATES 100 double
1 2 3 4 5 6 7 8 9 10 11 12 13 14 15 16 17 18 19 20 21 22 23 24 25 26 27 28 29 30 31 32 33 34 35 36 37 38 39 40 41 42 43 44 45 46 47 48 49 50 51 52 53 54 55 56 57 58 59 60 61 62 63 64 65 66 67 68 69 70 71 72 73 74 75 76 77 78 79 80 81 82 83 84 85 86 87 88 89 90 91 92 93 94 95 96 97 98 99 100 
Z_COORDINATES 1 double
0
POINT_DATA 40000
SCALARS rho double 1
LOOKUP_TABLE default
0.477407 0.477406 0.477404 0.477401 0.477399 0.477396 0.477394 0.477392 0.47739 0.477388 0.477386 0.477384 0.477382 0.47738 0.477378 0.477376 0.477374 0.477372 0.477369 0.477367 0.477365 0.477362 0.47736 0.477357 0.477354 0.477351 0.477348 0.477345 0.477341 0.477338 0.477334 0.477331 0.477327 0.477323 0.477319 0.477315 0.477311 0.477307 0.477302 0.477298 0.477293 0.477289 0.477284 0.47728 0.477275 0.47727 0.477265 0.47726 0.477255 0.47725 0.477245 0.477239 0.477234 0.477229 0.477223 0.477218 0.477212 0.477207 0.477201 0.477196 0.47719 0.477185 0.477179 0.477173 0.477167 0.477162 0.477156 0.47715 0.477144 0.477138 0.477132 0.477126 0.47712 0.477114 0.477108 0.477102 0.477096 0.47709 0.477084 0.477078 0.477072 0.477066 0.47706 0.477054 0.477047 0.477041 0.477035 0.477029 0.477023 0.477017 0.47701 0.477004 0.476998 0.476992 0.476986 0.47698 0.476974 0.476968 0.476962 0.476956 0.47695 0.476944 0.476938 0.476932 0.476926 0.476921 0.476915 0.47691 0.476904 0.476899 0.476894 0.476889 0.476885 0.47688 0.476876 0.476872 0.476869 0.476866 0.476864 0.476863 0.476864 0.476865 0.476869 0.476875 0.476884 0.476897 0.476916 0.476943 0.476979 0.477028 0.477093 0.477181 0.477298 0.477455 0.477663 0.47794 0.478309 0.4788 0.479453 0.480322 0.481479 0.483019 0.485069 0.487801 0.49144 0.49629 0.502755 0.511369 0.522844 0.538115 0.558399 0.585258 0.620638 0.666846 0.726392 0.801575 0.893682 1.00183 1.12184 1.24589 1.36401 1.46708 1.54965 1.61098 1.65386 1.68253 1.70114 1.713 1.7205 1.72521 1.72818 1.73006 1.73124 1.732 1.73248 1.73279 1.733 1.73313 1.73321 1.73327 1.73331 1.73333 1.73335 1.73336 1.73337 1.73338 1.73338 1.73338 1.73338 1.73339 1.73339 1.73339 1.73339 1.73339 1.73339 1.73339 1.73339 1.73339 1.73339 1.73339 1.73339 1.73339 1.73339 1.73339 1.73339 1.73339 1.73339 1.73339 1.73339 1.73339 1.73339 1.73338 1.73338 1.73338 1.73337 1.73336 1.73335 1.73333 1.73331 1.73327 1.73322 1.73313 1.733 1.7328 1.73249 1.732 1.73125 1.73007 1.72819 1.72523 1.72052 1.71304 1.70119 1.68261 1.65398 1.61116 1.54989 1.46739 1.36439 1.2463 1.12225 1.00222 0.894017 0.801854 0.726618 0.667024 0.620777 0.585366 0.558483 0.53818 0.522896 0.511411 0.502788 0.496318 0.491464 0.487821 0.485087 0.483035 0.481494 0.480337 0.479467 0.478814 0.478322 0.477954 0.477676 0.477468 0.477312 0.477195 0.477108 0.477043 0.476995 0.476959 0.476934 0.476915 0.476903 0.476894 0.476889 0.476886 0.476886 0.476886 0.476888 0.476891 0.476895 0.476899 0.476904 0.476909 0.476915 0.476921 0.476927 0.476933 0.476939 0.476946 0.476953 0.47696 0.476967 0.476974 0.476981 0.476988 0.476996 0.477003 0.477011 0.477018 0.477026 0.477033 0.477041 0.477049 0.477057 0.477064 0.477072 0.47708 0.477088 0.477096 0.477103 0.477111 0.477119 0.477127 0.477135 0.477143 0.477151 0.477159 0.477166 0.477174 0.477182 0.47719 0.477198 0.477205 0.477213 0.477221 0.477229 0.477236 0.477244 0.477252 0.477259 0.477267 0.477274 0.477282 0.477289 0.477297 0.477304 0.477311 0.477319 0.477326 0.477333 0.47734 0.477348 0.477355 0.477362 0.477369 0.477375 0.477382 0.477389 0.477396 0.477402 0.477409 0.477415 0.477422 0.477428 0.477434 0.47744 0.477446 0.477452 0.477458 0.477463 0.477469 0.477474 0.477479 0.477485 0.47749 0.477495 0.477499 0.477504 0.477508 0.477513 0.477517 0.477521 0.477525 0.477529 0.477532 0.477536 0.477539 0.477542 0.477545 0.477548 0.477551 0.477554 0.477556 0.477559 0.477561 0.477564 0.477566 0.477569 0.477571 0.477574 0.477576 0.477579 0.477582 0.477585 0.477587 0.47759 0.477591 0.467803 0.467802 0.4678 0.467798 0.467796 0.467794 0.467792 0.467789 0.467787 0.467785 0.467784 0.467782 0.46778 0.467778 0.467776 0.467774 0.467772 0.46777 0.467768 0.467765 0.467763 0.467761 0.467758 0.467755 0.467753 0.46775 0.467747 0.467744 0.46774 0.467737 0.467734 0.46773 0.467726 0.467723 0.467719 0.467715 0.467711 0.467707 0.467702 0.467698 0.467694 0.467689 0.467685 0.46768 0.467676 0.467671 0.467666 0.467661 0.467656 0.467651 0.467646 0.467641 0.467636 0.467631 0.467626 0.46762 0.467615 0.46761 0.467604 0.467599 0.467593 0.467588 0.467582 0.467577 0.467571 0.467566 0.46756 0.467554 0.467548 0.467543 0.467537 0.467531 0.467525 0.46752 0.467514 0.467508 0.467502 0.467496 0.46749 0.467484 0.467478 0.467472 0.467466 0.46746 0.467454 0.467449 0.467442 0.467437 0.46743 0.467425 0.467418 0.467413 0.467407 0.467401 0.467395 0.467389 0.467383 0.467377 0.467371 0.467365 0.467359 0.467354 0.467348 0.467342 0.467337 0.467331 0.467326 0.467321 0.467315 0.46731 0.467305 0.467301 0.467296 0.467292 0.467288 0.467284 0.467281 0.467279 0.467277 0.467276 0.467276 0.467277 0.467281 0.467286 0.467295 0.467308 0.467326 0.467352 0.467386 0.467433 0.467496 0.467581 0.467694 0.467844 0.468045 0.468312 0.468667 0.469139 0.469767 0.470603 0.471715 0.473195 0.475165 0.477789 0.481284 0.485939 0.492139 0.500397 0.51139 0.526009 0.545411 0.571083 0.604872 0.648979 0.705809 0.777604 0.865724 0.969576 1.08552 1.20647 1.32307 1.42631 1.5104 1.57392 1.61904 1.64964 1.66975 1.68272 1.69098 1.69622 1.69954 1.70166 1.703 1.70386 1.70441 1.70477 1.705 1.70516 1.70526 1.70532 1.70537 1.7054 1.70542 1.70543 1.70544 1.70545 1.70545 1.70546 1.70546 1.70546 1.70546 1.70546 1.70547 1.70547 1.70547 1.70547 1.70547 1.70547 1.70547 1.70547 1.70547 1.70547 1.70547 1.70547 1.70547 1.70547 1.70547 1.70547 1.70546 1.70546 1.70546 1.70546 1.70546 1.70545 1.70544 1.70543 1.70542 1.7054 1.70537 1.70533 1.70526 1.70516 1.70501 1.70477 1.70442 1.70387 1.70301 1.70166 1.69956 1.69624 1.691 1.68275 1.66981 1.64973 1.61916 1.5741 1.51065 1.42663 1.32344 1.20688 1.08592 0.969946 0.866046 0.777872 0.706024 0.649149 0.605005 0.571186 0.545492 0.526071 0.51144 0.500437 0.492171 0.485965 0.481306 0.477809 0.475183 0.473211 0.47173 0.470617 0.469781 0.469152 0.46868 0.468325 0.468058 0.467858 0.467708 0.467595 0.467511 0.467448 0.467402 0.467368 0.467343 0.467326 0.467313 0.467305 0.4673 0.467298 0.467297 0.467298 0.4673 0.467303 0.467306 0.467311 0.467315 0.46732 0.467326 0.467331 0.467337 0.467343 0.46735 0.467356 0.467363 0.467369 0.467376 0.467383 0.46739 0.467397 0.467404 0.467412 0.467419 0.467426 0.467434 0.467441 0.467448 0.467456 0.467463 0.467471 0.467479 0.467486 0.467494 0.467501 0.467509 0.467517 0.467524 0.467532 0.46754 0.467547 0.467555 0.467563 0.46757 0.467578 0.467585 0.467593 0.467601 0.467608 0.467616 0.467623 0.467631 0.467638 0.467646 0.467653 0.46766 0.467668 0.467675 0.467683 0.46769 0.467697 0.467704 0.467711 0.467718 0.467726 0.467733 0.46774 0.467746 0.467753 0.46776 0.467767 0.467774 0.46778 0.467787 0.467793 0.4678 0.467806 0.467812 0.467818 0.467824 0.46783 0.467836 0.467842 0.467848 0.467853 0.467859 0.467864 0.46787 0.467875 0.46788 0.467885 0.467889 0.467894 0.467899 0.467903 0.467907 0.467911 0.467915 0.467919 0.467923 0.467926 0.46793 0.467933 0.467936 0.467939 0.467942 0.467944 0.467947 0.46795 0.467952 0.467955 0.467957 0.467959 0.467962 0.467964 0.467967 0.467969 0.467972 0.467974 0.467977 0.467979 0.467981 0.467983 0.460546 0.460545 0.460543 0.460542 0.46054 0.460538 0.460536 0.460534 0.460532 0.46053 0.460528 0.460526 0.460524 0.460522 0.46052 0.460519 0.460517 0.460515 0.460512 0.46051 0.460508 0.460506 0.460503 0.4605 0.460498 0.460495 0.460492 0.460489 0.460486 0.460483 0.460479 0.460476 0.460472 0.460469 0.460465 0.460461 0.460457 0.460453 0.460449 0.460445 0.460441 0.460436 0.460432 0.460427 0.460423 0.460418 0.460413 0.460409 0.460404 0.460399 0.460394 0.460389 0.460384 0.460379 0.460374 0.460369 0.460364 0.460359 0.460353 0.460348 0.460343 0.460337 0.460332 0.460327 0.460321 0.460316 0.46031 0.460305 0.460299 0.460294 0.460288 0.460282 0.460277 0.460271 0.460265 0.46026 0.460254 0.460248 0.460242 0.460237 0.460231 0.460225 0.460219 0.460214 0.460208 0.460202 0.460196 0.46019 0.460184 0.460179 0.460173 0.460167 0.460161 0.460155 0.46015 0.460144 0.460138 0.460132 0.460127 0.460121 0.460115 0.46011 0.460104 0.460099 0.460093 0.460088 0.460083 0.460078 0.460073 0.460068 0.460063 0.460059 0.460054 0.46005 0.460046 0.460043 0.460039 0.460037 0.460035 0.460034 0.460034 0.460035 0.460038 0.460044 0.460052 0.460065 0.460082 0.460106 0.460139 0.460184 0.460244 0.460324 0.460432 0.460575 0.460766 0.46102 0.461358 0.461808 0.462406 0.463201 0.464258 0.465665 0.467536 0.470026 0.473339 0.477749 0.483617 0.491424 0.501803 0.515586 0.533854 0.557991 0.589719 0.631096 0.684403 0.751829 0.834866 0.933369 1.04452 1.16228 1.27814 1.38327 1.47123 1.53951 1.58929 1.62385 1.64703 1.66222 1.67205 1.67836 1.68241 1.685 1.68667 1.68774 1.68844 1.6889 1.68919 1.68939 1.68952 1.68961 1.68967 1.68971 1.68973 1.68975 1.68977 1.68978 1.68978 1.68979 1.68979 1.68979 1.6898 1.6898 1.6898 1.6898 1.6898 1.6898 1.6898 1.6898 1.6898 1.6898 1.6898 1.6898 1.6898 1.6898 1.6898 1.6898 1.6898 1.6898 1.6898 1.68979 1.68979 1.68979 1.68978 1.68978 1.68977 1.68976 1.68974 1.68971 1.68967 1.68961 1.68952 1.68939 1.6892 1.6889 1.68845 1.68775 1.68668 1.68501 1.68242 1.67838 1.67208 1.66227 1.6471 1.62395 1.58944 1.53972 1.47149 1.3836 1.27852 1.16268 1.04491 0.933723 0.835171 0.752082 0.684606 0.631257 0.589844 0.558088 0.53393 0.515646 0.50185 0.491462 0.483648 0.477775 0.473361 0.470045 0.467553 0.46568 0.464272 0.463215 0.462419 0.461821 0.461371 0.461033 0.460779 0.460588 0.460445 0.460338 0.460258 0.460198 0.460154 0.460122 0.460098 0.460082 0.46007 0.460062 0.460058 0.460055 0.460055 0.460056 0.460058 0.460061 0.460064 0.460068 0.460073 0.460078 0.460083 0.460088 0.460094 0.4601 0.460106 0.460113 0.460119 0.460125 0.460132 0.460139 0.460145 0.460152 0.460159 0.460166 0.460173 0.460181 0.460188 0.460195 0.460202 0.460209 0.460217 0.460224 0.460231 0.460239 0.460246 0.460254 0.460261 0.460269 0.460276 0.460283 0.460291 0.460298 0.460306 0.460313 0.46032 0.460328 0.460335 0.460343 0.46035 0.460357 0.460365 0.460372 0.460379 0.460387 0.460394 0.460401 0.460408 0.460415 0.460423 0.46043 0.460437 0.460444 0.460451 0.460458 0.460465 0.460472 0.460478 0.460485 0.460492 0.460499 0.460505 0.460512 0.460518 0.460525 0.460531 0.460537 0.460544 0.46055 0.460556 0.460562 0.460568 0.460574 0.460579 0.460585 0.46059 0.460596 0.460601 0.460606 0.460612 0.460617 0.460621 0.460626 0.460631 0.460635 0.46064 0.460644 0.460648 0.460652 0.460656 0.46066 0.460663 0.460667 0.46067 0.460673 0.460676 0.460679 0.460682 0.460684 0.460687 0.46069 0.460692 0.460694 0.460697 0.460699 0.460701 0.460703 0.460706 0.460708 0.460711 0.460713 0.460715 0.460717 0.460719 0.46072 0.455066 0.455066 0.455065 0.455063 0.455061 0.45506 0.455058 0.455056 0.455054 0.455052 0.45505 0.455049 0.455047 0.455045 0.455043 0.455042 0.45504 0.455038 0.455036 0.455033 0.455031 0.455029 0.455026 0.455024 0.455021 0.455018 0.455016 0.455013 0.45501 0.455006 0.455003 0.455 0.454996 0.454993 0.454989 0.454985 0.454982 0.454978 0.454974 0.45497 0.454965 0.454961 0.454957 0.454953 0.454948 0.454944 0.454939 0.454935 0.45493 0.454925 0.45492 0.454916 0.454911 0.454906 0.454901 0.454896 0.454891 0.454886 0.454881 0.454875 0.45487 0.454865 0.45486 0.454855 0.454849 0.454844 0.454838 0.454833 0.454828 0.454822 0.454817 0.454811 0.454806 0.4548 0.454795 0.454789 0.454784 0.454778 0.454773 0.454767 0.454761 0.454756 0.45475 0.454744 0.454739 0.454733 0.454727 0.454722 0.454716 0.454711 0.454705 0.454699 0.454693 0.454688 0.454682 0.454677 0.454671 0.454666 0.45466 0.454655 0.454649 0.454644 0.454638 0.454633 0.454628 0.454623 0.454617 0.454613 0.454608 0.454603 0.454598 0.454594 0.454589 0.454585 0.454581 0.454578 0.454575 0.454573 0.454571 0.454569 0.454569 0.454571 0.454573 0.454578 0.454586 0.454598 0.454614 0.454637 0.454668 0.45471 0.454767 0.454843 0.454945 0.45508 0.455261 0.455501 0.45582 0.456244 0.456808 0.457557 0.458553 0.459876 0.461635 0.463973 0.467081 0.471213 0.476702 0.483994 0.493672 0.5065 0.52347 0.54585 0.57522 0.613478 0.662759 0.725194 0.802414 0.894763 1.00034 1.11433 1.22928 1.33671 1.42957 1.50409 1.56014 1.60016 1.62766 1.64606 1.65816 1.66605 1.67117 1.67449 1.67664 1.67804 1.67896 1.67956 1.67996 1.68023 1.6804 1.68052 1.6806 1.68066 1.6807 1.68072 1.68074 1.68076 1.68077 1.68077 1.68078 1.68078 1.68078 1.68079 1.68079 1.68079 1.68079 1.68079 1.68079 1.68079 1.68079 1.68079 1.68079 1.68079 1.68079 1.68079 1.68079 1.68079 1.68079 1.68079 1.68079 1.68078 1.68078 1.68077 1.68077 1.68076 1.68075 1.68073 1.6807 1.68066 1.68061 1.68053 1.68041 1.68023 1.67997 1.67957 1.67897 1.67805 1.67665 1.6745 1.67119 1.66608 1.6582 1.64611 1.62774 1.60028 1.5603 1.50431 1.42986 1.33706 1.22966 1.11472 1.00072 0.895099 0.802701 0.72543 0.662948 0.613627 0.575336 0.545941 0.523541 0.506556 0.493716 0.48403 0.476732 0.471237 0.467102 0.463992 0.461651 0.459891 0.458566 0.45757 0.45682 0.456257 0.455832 0.455513 0.455273 0.455093 0.454958 0.454857 0.454781 0.454725 0.454683 0.454653 0.45463 0.454615 0.454604 0.454597 0.454592 0.45459 0.45459 0.454591 0.454593 0.454596 0.454599 0.454603 0.454608 0.454613 0.454618 0.454623 0.454629 0.454634 0.45464 0.454646 0.454653 0.454659 0.454665 0.454672 0.454679 0.454685 0.454692 0.454699 0.454706 0.454713 0.45472 0.454727 0.454734 0.454741 0.454748 0.454755 0.454762 0.454769 0.454776 0.454784 0.454791 0.454798 0.454805 0.454813 0.45482 0.454827 0.454834 0.454842 0.454849 0.454856 0.454863 0.45487 0.454877 0.454885 0.454892 0.454899 0.454906 0.454913 0.45492 0.454927 0.454934 0.454941 0.454948 0.454955 0.454962 0.454969 0.454976 0.454982 0.454989 0.454996 0.455002 0.455009 0.455016 0.455022 0.455029 0.455035 0.455041 0.455048 0.455054 0.45506 0.455066 0.455072 0.455078 0.455084 0.45509 0.455095 0.455101 0.455106 0.455112 0.455117 0.455122 0.455127 0.455132 0.455137 0.455142 0.455147 0.455151 0.455155 0.45516 0.455164 0.455168 0.455172 0.455175 0.455179 0.455183 0.455186 0.455189 0.455192 0.455195 0.455198 0.455201 0.455203 0.455206 0.455208 0.45521 0.455213 0.455215 0.455217 0.455219 0.455222 0.455224 0.455226 0.455228 0.45523 0.455232 0.455234 0.455235 0.455236 0.450932 0.450932 0.450931 0.45093 0.450928 0.450927 0.450925 0.450923 0.450922 0.45092 0.450918 0.450917 0.450915 0.450913 0.450911 0.45091 0.450908 0.450906 0.450904 0.450902 0.450899 0.450897 0.450895 0.450892 0.45089 0.450887 0.450884 0.450881 0.450878 0.450875 0.450872 0.450869 0.450865 0.450862 0.450858 0.450855 0.450851 0.450847 0.450843 0.450839 0.450835 0.450831 0.450827 0.450823 0.450818 0.450814 0.45081 0.450805 0.450801 0.450796 0.450791 0.450787 0.450782 0.450777 0.450772 0.450767 0.450762 0.450757 0.450752 0.450747 0.450742 0.450737 0.450732 0.450727 0.450722 0.450717 0.450711 0.450706 0.450701 0.450696 0.45069 0.450685 0.45068 0.450674 0.450669 0.450663 0.450658 0.450653 0.450647 0.450642 0.450636 0.450631 0.450625 0.45062 0.450614 0.450609 0.450603 0.450598 0.450592 0.450587 0.450581 0.450576 0.45057 0.450565 0.450559 0.450554 0.450548 0.450543 0.450537 0.450532 0.450527 0.450522 0.450516 0.450511 0.450506 0.450501 0.450496 0.450491 0.450486 0.450482 0.450477 0.450473 0.450469 0.450465 0.450461 0.450458 0.450455 0.450452 0.45045 0.450449 0.450449 0.45045 0.450452 0.450457 0.450464 0.450475 0.45049 0.450511 0.45054 0.45058 0.450633 0.450705 0.4508 0.450927 0.451096 0.451321 0.45162 0.452017 0.452545 0.453245 0.454175 0.455409 0.457048 0.459224 0.462112 0.465944 0.471027 0.477767 0.486692 0.498498 0.51408 0.534584 0.561441 0.59638 0.641379 0.698485 0.769439 0.855035 0.954269 1.06359 1.17679 1.28603 1.38386 1.46529 1.52871 1.57545 1.60844 1.63103 1.64617 1.65619 1.66278 1.6671 1.66994 1.6718 1.67303 1.67384 1.67439 1.67475 1.67499 1.67516 1.67527 1.67535 1.67541 1.67544 1.67547 1.67549 1.6755 1.67551 1.67552 1.67553 1.67553 1.67553 1.67553 1.67554 1.67554 1.67554 1.67554 1.67554 1.67554 1.67554 1.67554 1.67554 1.67554 1.67554 1.67554 1.67554 1.67554 1.67553 1.67553 1.67553 1.67552 1.67551 1.6755 1.67549 1.67547 1.67545 1.67541 1.67535 1.67528 1.67516 1.675 1.67475 1.67439 1.67385 1.67304 1.67181 1.66995 1.66712 1.6628 1.65622 1.64621 1.63109 1.60854 1.57559 1.5289 1.46554 1.38417 1.28639 1.17718 1.06398 0.954627 0.85535 0.769705 0.698702 0.641552 0.596517 0.561548 0.534668 0.514146 0.49855 0.486734 0.4778 0.471055 0.465967 0.462131 0.459241 0.457064 0.455424 0.454188 0.453258 0.452557 0.45203 0.451632 0.451333 0.451109 0.45094 0.450813 0.450718 0.450647 0.450594 0.450555 0.450527 0.450506 0.450491 0.450481 0.450475 0.450471 0.450469 0.450469 0.45047 0.450472 0.450475 0.450478 0.450482 0.450487 0.450492 0.450496 0.450502 0.450507 0.450513 0.450519 0.450525 0.450531 0.450537 0.450543 0.450549 0.450556 0.450562 0.450569 0.450576 0.450582 0.450589 0.450596 0.450603 0.45061 0.450616 0.450623 0.45063 0.450637 0.450644 0.450651 0.450658 0.450665 0.450672 0.450679 0.450687 0.450694 0.450701 0.450708 0.450715 0.450722 0.450729 0.450736 0.450743 0.45075 0.450757 0.450764 0.450771 0.450778 0.450785 0.450791 0.450798 0.450805 0.450812 0.450819 0.450825 0.450832 0.450839 0.450845 0.450852 0.450859 0.450865 0.450872 0.450878 0.450885 0.450891 0.450897 0.450903 0.45091 0.450916 0.450922 0.450928 0.450934 0.45094 0.450945 0.450951 0.450957 0.450962 0.450968 0.450973 0.450978 0.450983 0.450988 0.450993 0.450998 0.451003 0.451008 0.451012 0.451017 0.451021 0.451025 0.451029 0.451033 0.451037 0.45104 0.451044 0.451047 0.451051 0.451054 0.451057 0.45106 0.451062 0.451065 0.451068 0.45107 0.451072 0.451075 0.451077 0.451079 0.451081 0.451083 0.451085 0.451087 0.451089 0.451091 0.451093 0.451095 0.451096 0.451097 0.451098 0.447814 0.447814 0.447813 0.447812 0.447811 0.44781 0.447808 0.447807 0.447805 0.447804 0.447802 0.4478 0.447799 0.447797 0.447795 0.447794 0.447792 0.44779 0.447788 0.447786 0.447784 0.447782 0.447779 0.447777 0.447774 0.447772 0.447769 0.447766 0.447763 0.44776 0.447757 0.447754 0.447751 0.447747 0.447744 0.44774 0.447737 0.447733 0.447729 0.447725 0.447721 0.447717 0.447713 0.447709 0.447705 0.4477 0.447696 0.447692 0.447687 0.447683 0.447678 0.447674 0.447669 0.447664 0.447659 0.447655 0.44765 0.447645 0.44764 0.447635 0.44763 0.447625 0.44762 0.447615 0.44761 0.447605 0.4476 0.447595 0.44759 0.447585 0.447579 0.447574 0.447569 0.447564 0.447558 0.447553 0.447548 0.447543 0.447537 0.447532 0.447526 0.447521 0.447516 0.44751 0.447505 0.4475 0.447494 0.447489 0.447483 0.447478 0.447473 0.447467 0.447462 0.447457 0.447451 0.447446 0.447441 0.447435 0.44743 0.447425 0.44742 0.447415 0.44741 0.447405 0.447399 0.447395 0.44739 0.447385 0.44738 0.447376 0.447371 0.447367 0.447363 0.447359 0.447355 0.447352 0.447349 0.447346 0.447344 0.447343 0.447343 0.447344 0.447346 0.44735 0.447356 0.447366 0.44738 0.4474 0.447427 0.447464 0.447514 0.44758 0.447669 0.447788 0.447945 0.448155 0.448433 0.448802 0.449292 0.449941 0.450803 0.451946 0.45346 0.455468 0.458128 0.461652 0.466317 0.472487 0.480639 0.491396 0.505559 0.52415 0.548451 0.580019 0.620664 0.672326 0.736802 0.815247 0.90745 1.01108 1.12128 1.23115 1.33324 1.42157 1.49301 1.54751 1.58714 1.61496 1.63401 1.64683 1.65538 1.66106 1.66482 1.66732 1.66898 1.67009 1.67083 1.67133 1.67168 1.67191 1.67207 1.67218 1.67226 1.67231 1.67235 1.67238 1.6724 1.67241 1.67242 1.67243 1.67244 1.67244 1.67245 1.67245 1.67245 1.67245 1.67245 1.67245 1.67245 1.67245 1.67245 1.67245 1.67245 1.67245 1.67245 1.67245 1.67245 1.67244 1.67244 1.67243 1.67242 1.67241 1.6724 1.67238 1.67235 1.67231 1.67226 1.67218 1.67207 1.67191 1.67168 1.67134 1.67084 1.67009 1.66899 1.66733 1.66484 1.66108 1.65541 1.64687 1.63407 1.61505 1.58727 1.54767 1.49324 1.42185 1.33358 1.23152 1.12167 1.01145 0.907788 0.81554 0.737047 0.672524 0.620822 0.580144 0.548549 0.524227 0.505619 0.491444 0.480678 0.472518 0.466342 0.461674 0.458147 0.455485 0.453475 0.451959 0.450816 0.449954 0.449304 0.448814 0.448445 0.448167 0.447957 0.4478 0.447682 0.447594 0.447527 0.447478 0.447442 0.447416 0.447396 0.447383 0.447374 0.447368 0.447364 0.447363 0.447363 0.447364 0.447366 0.447369 0.447372 0.447377 0.447381 0.447386 0.44739 0.447396 0.447401 0.447406 0.447412 0.447418 0.447424 0.44743 0.447436 0.447442 0.447448 0.447455 0.447461 0.447468 0.447474 0.447481 0.447488 0.447494 0.447501 0.447508 0.447514 0.447521 0.447528 0.447535 0.447542 0.447549 0.447555 0.447562 0.447569 0.447576 0.447583 0.44759 0.447597 0.447604 0.44761 0.447617 0.447624 0.447631 0.447638 0.447645 0.447651 0.447658 0.447665 0.447672 0.447679 0.447685 0.447692 0.447699 0.447705 0.447712 0.447718 0.447725 0.447731 0.447738 0.447744 0.447751 0.447757 0.447763 0.44777 0.447776 0.447782 0.447788 0.447794 0.4478 0.447806 0.447812 0.447818 0.447823 0.447829 0.447835 0.44784 0.447846 0.447851 0.447856 0.447861 0.447866 0.447871 0.447876 0.447881 0.447886 0.44789 0.447894 0.447899 0.447903 0.447907 0.447911 0.447915 0.447918 0.447922 0.447925 0.447929 0.447932 0.447935 0.447938 0.447941 0.447943 0.447946 0.447949 0.447951 0.447953 0.447955 0.447958 0.44796 0.447962 0.447964 0.447966 0.447967 0.447969 0.447971 0.447973 0.447974 0.447975 0.447976 0.447977 0.445464 0.445463 0.445463 0.445462 0.445461 0.44546 0.445458 0.445457 0.445456 0.445454 0.445453 0.445451 0.44545 0.445448 0.445446 0.445445 0.445443 0.445441 0.445439 0.445437 0.445435 0.445433 0.445431 0.445428 0.445426 0.445423 0.445421 0.445418 0.445415 0.445412 0.445409 0.445406 0.445403 0.445399 0.445396 0.445392 0.445389 0.445385 0.445381 0.445378 0.445374 0.44537 0.445366 0.445362 0.445358 0.445353 0.445349 0.445345 0.44534 0.445336 0.445332 0.445327 0.445323 0.445318 0.445313 0.445309 0.445304 0.445299 0.445294 0.44529 0.445285 0.44528 0.445275 0.44527 0.445265 0.44526 0.445255 0.44525 0.445245 0.44524 0.445235 0.44523 0.445225 0.445219 0.445214 0.445209 0.445204 0.445199 0.445194 0.445188 0.445183 0.445178 0.445173 0.445167 0.445162 0.445157 0.445152 0.445146 0.445141 0.445136 0.44513 0.445125 0.44512 0.445115 0.44511 0.445104 0.445099 0.445094 0.445089 0.445084 0.445079 0.445074 0.445069 0.445064 0.445059 0.445054 0.445049 0.445045 0.44504 0.445036 0.445031 0.445027 0.445023 0.445019 0.445015 0.445012 0.445009 0.445007 0.445004 0.445003 0.445002 0.445003 0.445005 0.445009 0.445014 0.445024 0.445036 0.445055 0.44508 0.445114 0.44516 0.445221 0.445304 0.445413 0.445559 0.445753 0.44601 0.446351 0.446803 0.447402 0.448194 0.449244 0.450634 0.452473 0.454904 0.458118 0.462363 0.467964 0.475346 0.485061 0.497818 0.514522 0.536306 0.564561 0.600921 0.647197 0.705181 0.776278 0.860921 0.957869 1.06363 1.17251 1.2775 1.37202 1.45159 1.51459 1.56196 1.59615 1.6201 1.63654 1.64767 1.65516 1.66017 1.66354 1.66579 1.66731 1.66834 1.66904 1.66951 1.66984 1.67007 1.67023 1.67034 1.67042 1.67048 1.67052 1.67055 1.67057 1.67058 1.6706 1.6706 1.67061 1.67062 1.67062 1.67062 1.67063 1.67063 1.67063 1.67063 1.67063 1.67063 1.67063 1.67063 1.67063 1.67062 1.67062 1.67062 1.67061 1.67061 1.6706 1.67058 1.67057 1.67055 1.67052 1.67048 1.67042 1.67034 1.67023 1.67007 1.66985 1.66952 1.66904 1.66834 1.66732 1.6658 1.66355 1.66019 1.65518 1.64771 1.63659 1.62018 1.59626 1.56211 1.51479 1.45185 1.37234 1.27785 1.17289 1.06401 0.958223 0.861237 0.776547 0.705404 0.647377 0.601064 0.564673 0.536395 0.514591 0.497873 0.485105 0.475382 0.467993 0.462387 0.458138 0.454922 0.452488 0.450648 0.449258 0.448207 0.447414 0.446815 0.446363 0.446022 0.445765 0.445571 0.445426 0.445316 0.445234 0.445173 0.445128 0.445094 0.44507 0.445052 0.44504 0.445031 0.445026 0.445023 0.445022 0.445022 0.445024 0.445026 0.445029 0.445032 0.445036 0.445041 0.445045 0.44505 0.445055 0.44506 0.445066 0.445071 0.445077 0.445083 0.445089 0.445095 0.445101 0.445107 0.445113 0.44512 0.445126 0.445132 0.445139 0.445145 0.445152 0.445158 0.445165 0.445172 0.445178 0.445185 0.445192 0.445198 0.445205 0.445212 0.445219 0.445225 0.445232 0.445239 0.445246 0.445252 0.445259 0.445266 0.445272 0.445279 0.445286 0.445293 0.445299 0.445306 0.445313 0.445319 0.445326 0.445332 0.445339 0.445346 0.445352 0.445359 0.445365 0.445371 0.445378 0.445384 0.445391 0.445397 0.445403 0.445409 0.445416 0.445422 0.445428 0.445434 0.44544 0.445446 0.445452 0.445457 0.445463 0.445469 0.445474 0.44548 0.445485 0.445491 0.445496 0.445501 0.445506 0.445511 0.445516 0.445521 0.445526 0.445531 0.445535 0.44554 0.445544 0.445548 0.445552 0.445556 0.44556 0.445564 0.445567 0.445571 0.445574 0.445578 0.445581 0.445584 0.445586 0.445589 0.445592 0.445594 0.445597 0.445599 0.445601 0.445603 0.445606 0.445608 0.445609 0.445611 0.445613 0.445615 0.445616 0.445618 0.445619 0.445621 0.445622 0.445622 0.445623 0.443691 0.443691 0.443691 0.44369 0.443689 0.443688 0.443687 0.443686 0.443684 0.443683 0.443682 0.44368 0.443679 0.443677 0.443676 0.443674 0.443672 0.443671 0.443669 0.443667 0.443665 0.443663 0.44366 0.443658 0.443656 0.443653 0.44365 0.443648 0.443645 0.443642 0.443639 0.443636 0.443633 0.44363 0.443626 0.443623 0.443619 0.443616 0.443612 0.443608 0.443605 0.443601 0.443597 0.443593 0.443589 0.443585 0.44358 0.443576 0.443572 0.443568 0.443563 0.443559 0.443554 0.44355 0.443545 0.443541 0.443536 0.443531 0.443527 0.443522 0.443517 0.443513 0.443508 0.443503 0.443498 0.443493 0.443488 0.443483 0.443478 0.443473 0.443468 0.443463 0.443458 0.443453 0.443448 0.443443 0.443438 0.443433 0.443428 0.443423 0.443418 0.443412 0.443407 0.443402 0.443397 0.443392 0.443387 0.443382 0.443376 0.443371 0.443366 0.443361 0.443356 0.443351 0.443345 0.44334 0.443335 0.44333 0.443325 0.44332 0.443315 0.44331 0.443305 0.443301 0.443296 0.443291 0.443286 0.443282 0.443277 0.443273 0.443269 0.443265 0.44326 0.443257 0.443253 0.44325 0.443247 0.443244 0.443242 0.44324 0.44324 0.44324 0.443241 0.443245 0.44325 0.443258 0.44327 0.443287 0.443309 0.443341 0.443383 0.44344 0.443515 0.443616 0.443751 0.443929 0.444165 0.444478 0.444892 0.445441 0.446166 0.447124 0.44839 0.450062 0.452268 0.455178 0.459011 0.464057 0.470689 0.479393 0.490791 0.505677 0.525045 0.550122 0.582369 0.623447 0.675088 0.738835 0.815597 0.905037 1.00495 1.11097 1.21698 1.31632 1.40347 1.4753 1.5313 1.57302 1.60302 1.62405 1.63856 1.64845 1.65516 1.6597 1.66278 1.66487 1.66629 1.66727 1.66794 1.6684 1.66873 1.66896 1.66912 1.66923 1.66931 1.66938 1.66942 1.66945 1.66947 1.66949 1.66951 1.66952 1.66952 1.66953 1.66954 1.66954 1.66954 1.66954 1.66954 1.66954 1.66954 1.66954 1.66954 1.66954 1.66954 1.66953 1.66953 1.66952 1.66951 1.66949 1.66948 1.66945 1.66942 1.66938 1.66932 1.66923 1.66912 1.66896 1.66873 1.66841 1.66794 1.66727 1.6663 1.66488 1.66279 1.65972 1.65518 1.64848 1.6386 1.62412 1.60311 1.57315 1.53148 1.47553 1.40376 1.31666 1.21735 1.11135 1.00532 0.905371 0.815889 0.739081 0.675289 0.623608 0.582497 0.550223 0.525125 0.50574 0.490842 0.479434 0.470722 0.464084 0.459034 0.455197 0.452285 0.450077 0.448404 0.447137 0.446178 0.445453 0.444904 0.44449 0.444177 0.443941 0.443763 0.443629 0.443528 0.443453 0.443396 0.443355 0.443324 0.443302 0.443285 0.443274 0.443267 0.443262 0.44326 0.443259 0.443259 0.443261 0.443263 0.443266 0.44327 0.443274 0.443278 0.443283 0.443287 0.443293 0.443298 0.443303 0.443308 0.443314 0.44332 0.443326 0.443332 0.443338 0.443344 0.44335 0.443356 0.443362 0.443368 0.443375 0.443381 0.443387 0.443394 0.4434 0.443407 0.443413 0.44342 0.443426 0.443433 0.44344 0.443446 0.443453 0.443459 0.443466 0.443473 0.443479 0.443486 0.443493 0.443499 0.443506 0.443512 0.443519 0.443525 0.443532 0.443539 0.443545 0.443552 0.443558 0.443565 0.443571 0.443577 0.443584 0.44359 0.443597 0.443603 0.443609 0.443615 0.443622 0.443628 0.443634 0.44364 0.443646 0.443652 0.443658 0.443664 0.44367 0.443676 0.443681 0.443687 0.443693 0.443698 0.443704 0.443709 0.443715 0.44372 0.443725 0.44373 0.443735 0.44374 0.443745 0.44375 0.443754 0.443759 0.443763 0.443768 0.443772 0.443776 0.44378 0.443784 0.443788 0.443792 0.443795 0.443799 0.443802 0.443805 0.443808 0.443811 0.443814 0.443817 0.443819 0.443822 0.443824 0.443826 0.443828 0.44383 0.443832 0.443834 0.443836 0.443838 0.443839 0.443841 0.443842 0.443844 0.443845 0.443846 0.443847 0.443848 0.443848 0.442355 0.442355 0.442355 0.442354 0.442353 0.442353 0.442352 0.442351 0.442349 0.442348 0.442347 0.442346 0.442344 0.442343 0.442341 0.44234 0.442338 0.442336 0.442334 0.442332 0.44233 0.442328