# vtk DataFile Version 3.0
Immiscible displacement
ASCII
DATASET RECTILINEAR_GRID
DIMENSIONS 200 200 1
X_COORDINATES 200 double
1 2 3 4 5 6 7 8 9 10 11 12 13 14 15 16 17 18 19 20 21 22 23 24 25 26 27 28 29 30 31 32 33 34 35 36 37 38 39 40 41 42 43 44 45 46 47 48 49 50 51 52 53 54 55 56 57 58 59 60 61 62 63 64 65 66 67 68 69 70 71 72 73 74 75 76 77 78 79 80 81 82 83 84 85 86 87 88 89 90 91 92 93 94 95 96 97 98 99 100 101 102 103 104 105 106 107 108 109 110 111 112 113 114 115 116 117 118 119 120 121 122 123 124 125 126 127 128 129 130 131 132 133 134 135 136 137 138 139 140 141 142 143 144 145 146 147 148 149 150 151 152 153 154 155 156 157 158 159 160 161 162 163 164 165 166 167 168 169 170 171 172 173 174 175 176 177 178 179 180 181 182 183 184 185 186 187 188 189 190 191 192 193 194 195 196 197 198 199 200 
Y_COORDINATES 200 double
1 2 3 4 5 6 7 8 9 10 11 12 13 14 15 16 17 18 19 20 21 22 23 24 25 26 27 28 29 30 31 32 33 34 35 36 37 38 39 40 41 42 43 44 45 46 47 48 49 50 51 52 53 54 55 56 57 58 59 60 61 62 63 64 65 66 67 68 69 70 71 72 73 74 75 76 77 78 79 80 81 82 83 84 85 86 87 88 89 90 91 92 93 94 95 96 97 98 99 100 101 102 103 104 105 106 107 108 109 110 111 112 113 114 115 116 117 118 119 120 121 122 123 124 125 126 127 128 129 130 131 132 133 134 135 136 137 138 139 140 141 142 143 144 145 146 147 148 149 150 151 152 153 154 155 156 157 158 159 160 161 162 163 164 165 166 167 168 169 170 171 172 173 174 175 176 177 178 179 180 181 182 183 184 185 186 187 188 189 190 191 192 193 194 195 196 197 198 199 200 
Z_COORDINATES 1 double
0
POINT_DATA 40000
SCALARS rho double 1
LOOKUP_TABLE default
0.438598 0.438495 0.438351 0.438198 0.438048 0.437911 0.43779 0.437687 0.437602 0.437535 0.437484 0.437451 0.437434 0.437434 0.437454 0.437498 0.43757 0.43768 0.437839 0.438067 0.438384 0.438826 0.439435 0.440274 0.441423 0.442993 0.445131 0.448039 0.451982 0.457322 0.464537 0.474274 0.48738 0.504982 0.528533 0.559885 0.601286 0.6553 0.724473 0.810667 0.913936 1.03125 1.15576 1.27763 1.3868 1.47628 1.54391 1.59171 1.62385 1.64479 1.65822 1.66685 1.67247 1.67626 1.67892 1.6809 1.68246 1.68376 1.68489 1.68592 1.68687 1.68777 1.68861 1.68943 1.69021 1.69096 1.69168 1.69238 1.69304 1.69369 1.69431 1.69491 1.69548 1.69603 1.69656 1.69707 1.69755 1.69801 1.69845 1.69887 1.69926 1.69965 1.7 1.70034 1.70065 1.70094 1.70121 1.70147 1.7017 1.70191 1.7021 1.70228 1.70242 1.70256 1.70266 1.70276 1.70282 1.70287 1.7029 1.70291 1.70289 1.70286 1.70281 1.70274 1.70264 1.70253 1.70239 1.70224 1.70206 1.70187 1.70165 1.70141 1.70115 1.70088 1.70058 1.70026 1.69992 1.69956 1.69917 1.69877 1.69834 1.6979 1.69743 1.69694 1.69643 1.6959 1.69534 1.69476 1.69415 1.69353 1.69287 1.6922 1.69149 1.69077 1.69001 1.68923 1.6884 1.68755 1.68665 1.6857 1.68466 1.68352 1.68221 1.68064 1.67863 1.67595 1.67211 1.66641 1.65766 1.64404 1.6228 1.59024 1.54189 1.47362 1.3835 1.27386 1.15181 1.02745 0.910545 0.807824 0.722204 0.65356 0.599996 0.558961 0.5279 0.504578 0.487155 0.474191 0.464568 0.457444 0.452179 0.448299 0.445443 0.443349 0.441816 0.440699 0.439886 0.439298 0.438873 0.438569 0.438351 0.438196 0.438087 0.438013 0.437963 0.437934 0.437921 0.437922 0.437937 0.437966 0.43801 0.43807 0.438146 0.438241 0.438353 0.438483 0.438625 0.438773 0.438912 0.439012 0.438482 0.438402 0.438279 0.43814 0.438001 0.437872 0.437756 0.437657 0.437574 0.437508 0.437458 0.437425 0.437407 0.437408 0.437426 0.43747 0.43754 0.43765 0.437808 0.438034 0.43835 0.438791 0.439397 0.440234 0.441379 0.442945 0.445075 0.447973 0.451901 0.457222 0.464408 0.474107 0.487159 0.50469 0.528142 0.559364 0.600593 0.654394 0.723308 0.809219 0.912214 1.02933 1.15376 1.27573 1.38515 1.47497 1.54294 1.59103 1.62339 1.64449 1.65802 1.66671 1.67237 1.67618 1.67885 1.68084 1.68239 1.6837 1.68483 1.68586 1.6868 1.6877 1.68854 1.68936 1.69013 1.69089 1.6916 1.69231 1.69297 1.69362 1.69423 1.69484 1.6954 1.69596 1.69648 1.697 1.69747 1.69794 1.69837 1.6988 1.69919 1.69958 1.69993 1.70027 1.70058 1.70088 1.70114 1.7014 1.70163 1.70185 1.70203 1.70221 1.70235 1.70249 1.70259 1.70269 1.70275 1.70281 1.70283 1.70285 1.70283 1.7028 1.70274 1.70268 1.70257 1.70247 1.70232 1.70218 1.70199 1.7018 1.70158 1.70135 1.70108 1.70081 1.7005 1.70019 1.69984 1.69949 1.6991 1.6987 1.69827 1.69783 1.69735 1.69687 1.69635 1.69582 1.69526 1.69469 1.69408 1.69345 1.6928 1.69213 1.69142 1.6907 1.68994 1.68916 1.68833 1.68749 1.68658 1.68563 1.6846 1.68346 1.68214 1.68057 1.67857 1.67587 1.67201 1.66627 1.65746 1.64373 1.62234 1.58956 1.54091 1.4723 1.38184 1.27196 1.14981 1.02554 0.908833 0.806387 0.72105 0.652664 0.599312 0.558448 0.527515 0.504291 0.486939 0.474028 0.464442 0.457346 0.4521 0.448235 0.445388 0.443302 0.441773 0.44066 0.439848 0.439263 0.438839 0.438536 0.438318 0.438166 0.438057 0.437984 0.437934 0.437907 0.437893 0.437896 0.43791 0.43794 0.437983 0.438042 0.438116 0.438207 0.438314 0.438436 0.438568 0.438702 0.43882 0.438898 0.43831 0.43825 0.438151 0.438034 0.437912 0.437796 0.43769 0.437598 0.437519 0.437457 0.437408 0.437376 0.437358 0.437359 0.437376 0.437419 0.437488 0.437597 0.437752 0.437977 0.43829 0.438728 0.43933 0.440162 0.441299 0.442854 0.444969 0.447846 0.451744 0.457024 0.464153 0.473771 0.486713 0.504093 0.527341 0.558292 0.599167 0.65252 0.720898 0.806218 0.908642 1.02533 1.1496 1.27176 1.3817 1.47221 1.54089 1.5896 1.62243 1.64385 1.6576 1.66643 1.67217 1.67603 1.67872 1.68072 1.68229 1.68359 1.68472 1.68575 1.68669 1.68759 1.68843 1.68924 1.69001 1.69077 1.69148 1.69218 1.69284 1.69349 1.69411 1.69471 1.69528 1.69584 1.69636 1.69687 1.69735 1.69782 1.69825 1.69868 1.69907 1.69946 1.69981 1.70015 1.70046 1.70076 1.70103 1.70129 1.70152 1.70174 1.70192 1.7021 1.70224 1.70238 1.70248 1.70258 1.70264 1.7027 1.70272 1.70274 1.70272 1.70269 1.70263 1.70256 1.70246 1.70235 1.70221 1.70206 1.70188 1.70169 1.70146 1.70123 1.70097 1.70069 1.70039 1.70007 1.69972 1.69937 1.69898 1.69858 1.69815 1.6977 1.69723 1.69674 1.69623 1.6957 1.69513 1.69456 1.69395 1.69333 1.69267 1.692 1.6913 1.69057 1.68982 1.68904 1.68822 1.68737 1.68647 1.68553 1.68449 1.68336 1.68204 1.68046 1.67844 1.67571 1.67181 1.66599 1.65704 1.64309 1.62137 1.58811 1.53885 1.46952 1.37837 1.26798 1.14566 1.02155 0.905282 0.803409 0.718663 0.65081 0.597903 0.55739 0.526727 0.503704 0.486501 0.473699 0.464192 0.457153 0.451948 0.448111 0.445285 0.443213 0.441694 0.440589 0.439782 0.439201 0.438779 0.438479 0.438262 0.438111 0.438004 0.437932 0.437884 0.437857 0.437844 0.437847 0.437862 0.43789 0.437931 0.437987 0.438057 0.438141 0.438239 0.438349 0.438463 0.438576 0.43867 0.438728 0.438109 0.438065 0.437988 0.437893 0.437791 0.43769 0.437596 0.437514 0.437442 0.437384 0.437339 0.437308 0.437291 0.437292 0.437309 0.437351 0.437418 0.437525 0.437679 0.437901 0.43821 0.438644 0.43924 0.440064 0.441188 0.442727 0.444819 0.447664 0.451516 0.456731 0.463771 0.473267 0.486039 0.503188 0.526123 0.556657 0.596987 0.649652 0.717204 0.801607 0.903139 1.01914 1.14314 1.26558 1.37629 1.46788 1.53767 1.58735 1.62091 1.64286 1.65695 1.66599 1.67186 1.6758 1.67854 1.68057 1.68214 1.68345 1.68458 1.68561 1.68655 1.68744 1.68828 1.68909 1.68986 1.69061 1.69132 1.69202 1.69268 1.69333 1.69394 1.69455 1.69511 1.69567 1.6962 1.69671 1.69719 1.69766 1.69809 1.69852 1.69891 1.6993 1.69965 1.7 1.70031 1.70061 1.70088 1.70114 1.70137 1.70159 1.70177 1.70195 1.7021 1.70224 1.70234 1.70244 1.7025 1.70256 1.70258 1.70259 1.70257 1.70255 1.70249 1.70242 1.70232 1.70221 1.70207 1.70192 1.70173 1.70154 1.70131 1.70108 1.70082 1.70054 1.70023 1.69992 1.69957 1.69921 1.69882 1.69842 1.69799 1.69754 1.69707 1.69658 1.69606 1.69553 1.69497 1.69439 1.69378 1.69316 1.69251 1.69184 1.69114 1.69042 1.68966 1.68888 1.68807 1.68722 1.68633 1.68538 1.68435 1.68322 1.68189 1.68031 1.67826 1.67549 1.6715 1.66555 1.65637 1.64208 1.61984 1.58583 1.5356 1.46515 1.37294 1.26179 1.13921 1.01538 0.899812 0.798835 0.715003 0.647972 0.595749 0.555776 0.525526 0.502813 0.485839 0.473204 0.463819 0.456868 0.451725 0.447933 0.445139 0.443089 0.441586 0.440492 0.439693 0.439117 0.438699 0.438402 0.438188 0.438039 0.437933 0.437863 0.437815 0.437789 0.437777 0.43778 0.437794 0.437821 0.437859 0.43791 0.437973 0.438049 0.438134 0.438228 0.438324 0.438414 0.438487 0.43853 0.437896 0.437863 0.437804 0.437729 0.437645 0.437562 0.437481 0.437409 0.437345 0.437294 0.437253 0.437225 0.43721 0.437211 0.437228 0.437269 0.437335 0.43744 0.437591 0.43781 0.438115 0.438543 0.439131 0.439943 0.441052 0.442568 0.444628 0.447429 0.451218 0.456347 0.463267 0.472596 0.48514 0.501976 0.52449 0.554461 0.594056 0.645791 0.712222 0.795374 0.895676 1.01071 1.1343 1.25706 1.36879 1.46183 1.53316 1.58417 1.61878 1.64145 1.65603 1.66538 1.67144 1.67549 1.6783 1.68036 1.68196 1.68328 1.68441 1.68544 1.68637 1.68726 1.6881 1.6889 1.68967 1.69042 1.69113 1.69183 1.69249 1.69314 1.69375 1.69435 1.69492 1.69548 1.696 1.69652 1.697 1.69747 1.6979 1.69833 1.69873 1.69911 1.69947 1.69981 1.70012 1.70043 1.7007 1.70096 1.70119 1.70141 1.70159 1.70177 1.70192 1.70206 1.70216 1.70226 1.70232 1.70238 1.7024 1.70242 1.7024 1.70237 1.70231 1.70224 1.70214 1.70203 1.70189 1.70174 1.70155 1.70136 1.70113 1.7009 1.70063 1.70036 1.70005 1.69973 1.69938 1.69902 1.69863 1.69823 1.6978 1.69735 1.69687 1.69639 1.69587 1.69534 1.69477 1.6942 1.69359 1.69297 1.69232 1.69165 1.69095 1.69023 1.68948 1.6887 1.68789 1.68705 1.68616 1.68521 1.68418 1.68304 1.68171 1.6801 1.67802 1.67518 1.67108 1.66493 1.65544 1.64066 1.61767 1.58263 1.53104 1.45906 1.36541 1.25326 1.13038 1.00699 0.892395 0.79265 0.710067 0.644151 0.592851 0.553607 0.523914 0.501619 0.484954 0.472545 0.463324 0.456492 0.451434 0.447704 0.444952 0.442934 0.441452 0.440373 0.439585 0.439017 0.438604 0.438311 0.4381 0.437953 0.437849 0.43778 0.437734 0.437708 0.437696 0.437698 0.43771 0.437735 0.437769 0.437814 0.437869 0.437934 0.438006 0.438083 0.43816 0.438231 0.438286 0.438318 0.437677 0.437653 0.437609 0.437551 0.437485 0.437417 0.43735 0.437289 0.437234 0.437189 0.437153 0.437129 0.437116 0.437118 0.437136 0.437176 0.437242 0.437345 0.437493 0.437708 0.438008 0.438428 0.439006 0.439804 0.440892 0.44238 0.4444 0.447144 0.450855 0.455875 0.462643 0.471764 0.484021 0.500468 0.522454 0.551722 0.590398 0.640965 0.705983 0.787547 0.886268 1.00003 1.12303 1.24611 1.35907 1.45393 1.52722 1.57997 1.61594 1.63958 1.6548 1.66457 1.6709 1.6751 1.678 1.68012 1.68174 1.68308 1.68422 1.68524 1.68618 1.68706 1.68789 1.6887 1.68946 1.69021 1.69092 1.69161 1.69227 1.69292 1.69353 1.69413 1.6947 1.69526 1.69578 1.6963 1.69678 1.69725 1.69769 1.69812 1.69851 1.6989 1.69926 1.6996 1.69991 1.70022 1.70049 1.70075 1.70098 1.7012 1.70139 1.70157 1.70172 1.70186 1.70196 1.70206 1.70212 1.70218 1.7022 1.70222 1.7022 1.70217 1.70211 1.70204 1.70194 1.70183 1.70168 1.70153 1.70135 1.70116 1.70093 1.70069 1.70043 1.70015 1.69984 1.69952 1.69917 1.69881 1.69842 1.69801 1.69758 1.69713 1.69666 1.69617 1.69565 1.69512 1.69456 1.69398 1.69337 1.69275 1.6921 1.69143 1.69073 1.69002 1.68927 1.6885 1.68769 1.68685 1.68596 1.68502 1.68399 1.68284 1.6815 1.67986 1.67772 1.67479 1.67053 1.66412 1.65421 1.63877 1.6148 1.57838 1.52504 1.4511 1.35565 1.24229 1.11912 0.996356 0.883045 0.784885 0.703885 0.639374 0.589232 0.5509 0.521904 0.500131 0.483852 0.471727 0.462712 0.456029 0.451079 0.447425 0.444729 0.44275 0.441296 0.440236 0.439462 0.438903 0.438498 0.438209 0.438001 0.437857 0.437755 0.437687 0.437641 0.437616 0.437603 0.437605 0.437614 0.437635 0.437664 0.437703 0.437749 0.437803 0.437861 0.437923 0.437983 0.438037 0.438078 0.4381 0.437459 0.437442 0.437409 0.437365 0.437314 0.437261 0.437207 0.437157 0.437112 0.437074 0.437043 0.437024 0.437013 0.437017 0.437035 0.437076 0.43714 0.437241 0.437386 0.437597 0.437891 0.438302 0.438867 0.439648 0.440711 0.442165 0.444136 0.446813 0.45043 0.45532 0.461907 0.470779 0.482696 0.498678 0.520038 0.54847 0.586052 0.635227 0.698551 0.778194 0.874972 0.987131 1.10929 1.23265 1.347 1.44402 1.5197 1.57463 1.6123 1.63718 1.65324 1.66354 1.6702 1.67461 1.67763 1.67982 1.68149 1.68284 1.68399 1.68502 1.68596 1.68684 1.68767 1.68847 1.68923 1.68997 1.69068 1.69137 1.69203 1.69268 1.69329 1.69389 1.69446 1.69502 1.69554 1.69606 1.69654 1.69701 1.69745 1.69788 1.69828 1.69866 1.69902 1.69937 1.69968 1.69998 1.70026 1.70052 1.70075 1.70097 1.70116 1.70134 1.70149 1.70163 1.70173 1.70183 1.7019 1.70195 1.70198 1.70199 1.70197 1.70194 1.70188 1.70181 1.70171 1.7016 1.70146 1.7013 1.70112 1.70092 1.7007 1.70046 1.70019 1.69991 1.6996 1.69928 1.69893 1.69857 1.69818 1.69777 1.69734 1.69689 1.69642 1.69593 1.69541 1.69488 1.69431 1.69374 1.69313 1.69251 1.69186 1.6912 1.6905 1.68978 1.68904 1.68827 1.68746 1.68663 1.68574 1.6848 1.68376 1.68261 1.68124 1.67956 1.67735 1.67429 1.66982 1.66307 1.65262 1.63633 1.61112 1.57297 1.51746 1.44113 1.34353 1.22881 1.10541 0.983508 0.87182 0.775605 0.696519 0.633692 0.584932 0.547685 0.519517 0.498364 0.482545 0.470757 0.461987 0.455483 0.450662 0.447101 0.444471 0.442539 0.441119 0.440083 0.439325 0.438779 0.438381 0.438099 0.437895 0.437754 0.437653 0.437587 0.437541 0.437516 0.437502 0.437501 0.437508 0.437525 0.437548 0.43758 0.437617 0.43766 0.437705 0.437753 0.437798 0.437837 0.437866 0.437882 0.437243 0.437232 0.437209 0.437177 0.437139 0.437099 0.437057 0.437018 0.436981 0.436951 0.436926 0.436911 0.436903 0.436909 0.436928 0.436969 0.437032 0.437132 0.437273 0.437479 0.437765 0.438167 0.438718 0.439478 0.440512 0.441926 0.443841 0.446439 0.449948 0.454686 0.461066 0.469653 0.481179 0.49663 0.517273 0.544748 0.581075 0.628649 0.690013 0.767413 0.861885 0.972073 1.09311 1.21662 1.33246 1.43195 1.51045 1.56799 1.60776 1.63417 1.65126 1.66225 1.66933 1.67401 1.67719 1.67947 1.68119 1.68258 1.68374 1.68478 1.68571 1.6866 1.68742 1.68822 1.68898 1.68972 1.69043 1.69112 1.69177 1.69242 1.69303 1.69363 1.6942 1.69475 1.69528 1.69579 1.69628 1.69675 1.69719 1.69762 1.69802 1.6984 1.69876 1.69911 1.69942 1.69973 1.7 1.70026 1.7005 1.70072 1.70091 1.70109 1.70124 1.70138 1.70148 1.70158 1.70165 1.7017 1.70172 1.70174 1.70172 1.70169 1.70163 1.70156 1.70146 1.70135 1.7012 1.70105 1.70086 1.70067 1.70044 1.70021 1.69994 1.69966 1.69935 1.69903 1.69867 1.69831 1.69792 1.69751 1.69708 1.69663 1.69615 1.69566 1.69514 1.69461 1.69405 1.69347 1.69287 1.69225 1.6916 1.69094 1.69024 1.68953 1.68879 1.68802 1.68722 1.68639 1.6855 1.68455 1.68351 1.68234 1.68094 1.67921 1.6769 1.67368 1.66895 1.66176 1.65062 1.63328 1.60652 1.56626 1.50812 1.42898 1.32894 1.21277 1.08926 0.968517 0.858816 0.764908 0.688057 0.627177 0.580006 0.544003 0.516783 0.496341 0.481047 0.469646 0.461159 0.45486 0.450188 0.446734 0.444182 0.442305 0.440924 0.439916 0.439178 0.438645 0.438258 0.437982 0.437783 0.437644 0.437546 0.43748 0.437435 0.43741 0.437394 0.437392 0.437395 0.437408 0.437425 0.437449 0.437477 0.43751 0.437544 0.437578 0.43761 0.437638 0.437657 0.437667 0.437034 0.437027 0.437012 0.43699 0.436963 0.436934 0.436903 0.436874 0.436846 0.436823 0.436803 0.436793 0.436788 0.436797 0.436817 0.436858 0.43692 0.437017 0.437156 0.437356 0.437634 0.438024 0.438558 0.439295 0.440297 0.441665 0.443517 0.446027 0.449413 0.453983 0.460131 0.468399 0.47949 0.494351 0.514196 0.540608 0.575537 0.621321 0.680482 0.755334 0.847139 0.954973 1.07454 1.198 1.31535 1.41756 1.49928 1.55989 1.60218 1.63044 1.64882 1.66065 1.66827 1.67327 1.67666 1.67906 1.68085 1.68227 1.68346 1.68451 1.68545 1.68633 1.68716 1.68795 1.68871 1.68945 1.69015 1.69084 1.69149 1.69213 1.69275 1.69334 1.69391 1.69447 1.69499 1.69551 1.69599 1.69646 1.6969 1.69733 1.69773 1.69812 1.69848 1.69883 1.69914 1.69945 1.69972 1.69999 1.70022 1.70044 1.70063 1.70081 1.70096 1.7011 1.70121 1.70131 1.70137 1.70143 1.70145 1.70146 1.70145 1.70142 1.70136 1.70129 1.70118 1.70107 1.70093 1.70077 1.70059 1.70039 1.70016 1.69993 1.69966 1.69938 1.69906 1.69874 1.69839 1.69803 1.69763 1.69723 1.69679 1.69634 1.69587 1.69538 1.69486 1.69433 1.69376 1.69319 1.69258 1.69197 1.69132 1.69066 1.68996 1.68926 1.68851 1.68775 1.68695 1.68612 1.68523 1.68428 1.68323 1.68204 1.6806 1.67879 1.67636 1.67294 1.66787 1.66014 1.64814 1.62951 1.60087 1.55807 1.49686 1.4145 1.31177 1.19415 1.07074 0.951494 0.844164 0.752922 0.678609 0.619919 0.574524 0.539907 0.513741 0.494088 0.47938 0.468409 0.460237 0.454168 0.449662 0.446329 0.443864 0.442049 0.440713 0.439737 0.439021 0.438504 0.438128 0.43786 0.437666 0.437531 0.437435 0.43737 0.437325 0.437299 0.437282 0.437277 0.437277 0.437285 0.437296 0.437313 0.437333 0.437356 0.437379 0.437402 0.437423 0.43744 0.437452 0.437458 0.436832 0.436828 0.43682 0.436807 0.436789 0.43677 0.436748 0.436728 0.436708 0.436691 0.436678 0.436671 0.436671 0.436682 0.436703 0.436744 0.436805 0.4369 0.437035 0.437229 0.437498 0.437875 0.438391 0.439102 0.440068 0.441385 0.443167 0.44558 0.448832 0.453218 0.459112 0.467034 0.477653 0.491871 0.510852 0.536107 0.569517 0.613347 0.670087 0.742109 0.830899 0.935977 1.05369 1.1768 1.29557 1.40066 1.48599 1.55013 1.59539 1.62589 1.64582 1.65868 1.66696 1.67238 1.67602 1.67857 1.68045 1.68193 1.68315 1.68421 1.68516 1.68604 1.68687 1.68766 1.68842 1.68915 1.68985 1.69054 1.69119 1.69183 1.69244 1.69304 1.69361 1.69416 1.69469 1.6952 1.69568 1.69616 1.6966 1.69703 1.69743 1.69782 1.69817 1.69852 1.69884 1.69914 1.69942 1.69968 1.69992 1.70014 1.70033 1.70051 1.70066 1.7008 1.70091 1.70101 1.70107 1.70113 1.70115 1.70117 1.70115 1.70112 1.70106 1.70099 1.70089 1.70077 1.70063 1.70047 1.70029 1.70009 1.69986 1.69962 1.69935 1.69907 1.69876 1.69844 1.69808 1.69772 1.69733 1.69692 1.69648 1.69604 1.69556 1.69507 1.69455 1.69402 1.69346 1.69288 1.69228 1.69167 1.69102 1.69036 1.68967 1.68896 1.68822 1.68746 1.68666 1.68583 1.68494 1.68399 1.68292 1.68169 1.6802 1.6783 1.67572 1.67203 1.66654 1.65814 1.6451 1.62489 1.594 1.54822 1.48346 1.39751 1.29194 1.17295 1.04994 0.932589 0.828029 0.7398 0.668304 0.612019 0.568563 0.535453 0.510433 0.491637 0.477564 0.467061 0.459233 0.453414 0.449091 0.44589 0.44352 0.441775 0.440488 0.439547 0.438857 0.438358 0.437994 0.437734 0.437546 0.437415 0.437321 0.437258 0.437213 0.437185 0.437167 0.437159 0.437155 0.437159 0.437165 0.437175 0.437187 0.437201 0.437214 0.437228 0.437239 0.437248 0.437253 0.437255 0.436638 0.436637 0.436634 0.436629 0.436619 0.436608 0.436595 0.436582 0.436569 0.436559 0.436551 0.436549 0.436552 0.436565 0.436588 0.436629 0.436689 0.436782 0.436912 0.4371 0.437359 0.437721 0.438217 0.4389 0.439827 0.441089 0.442795 0.445104 0.448212 0.4524 0.458024 0.465576 0.475691 0.489226 0.507286 0.531311 0.563099 0.604838 0.658971 0.727912 0.813355 0.915271 1.03069 1.15306 1.27306 1.3811 1.47035 1.5385 1.58721 1.62035 1.64216 1.65627 1.66536 1.6713 1.67525 1.678 1.68 1.68154 1.6828 1.68388 1.68484 1.68573 1.68656 1.68735 1.6881 1.68884 1.68954 1.69022 1.69087 1.69151 1.69212 1.69271 1.69328 1.69383 1.69436 1.69487 1.69535 1.69583 1.69627 1.6967 1.6971 1.69749 1.69785 1.69819 1.69851 1.69882 1.69909 1.69936 1.69959 1.69982 1.70001 1.70019 1.70034 1.70048 1.70059 1.70069 1.70075 1.70081 1.70083 1.70084 1.70083 1.7008 1.70074 1.70067 1.70056 1.70045 1.7003 1.70015 1.69996 1.69977 1.69954 1.6993 1.69903 1.69875 1.69843 1.69811 1.69776 1.69739 1.697 1.69659 1.69616 1.69571 1.69523 1.69474 1.69422 1.69369 1.69313 1.69256 1.69196 1.69134 1.6907 1.69004 1.68935 1.68865 1.68791 1.68715 1.68635 1.68552 1.68463 1.68366 1.68257 1.6813 1.67974 1.67773 1.67494 1.67094 1.66492 1.6557 1.64139 1.61928 1.58572 1.53647 1.4677 1.37785 1.26938 1.14922 1.027 0.911986 0.810599 0.725712 0.657284 0.603589 0.562208 0.530705 0.506904 0.489021 0.475625 0.465621 0.458159 0.452608 0.44848 0.445422 0.443155 0.441484 0.440251 0.439349 0.438686 0.438206 0.437856 0.437606 0.437425 0.437298 0.437206 0.437144 0.437099 0.437071 0.43705 0.43704 0.437033 0.437032 0.437032 0.437036 0.437041 0.437047 0.437052 0.437058 0.437061 0.437062 0.437062 0.437061 0.436453 0.436455 0.436456 0.436457 0.436454 0.436451 0.436445 0.436439 0.436432 0.436428 0.436425 0.436427 0.436432 0.436448 0.436472 0.436513 0.436572 0.436662 0.436788 0.436968 0.437217 0.437564 0.438039 0.438691 0.439576 0.44078 0.442406 0.444603 0.44756 0.45154 0.456879 0.464042 0.47363 0.486451 0.503547 0.526285 0.556374 0.595913 0.647286 0.712928 0.79472 0.893072 1.00571 1.12689 1.24779 1.35873 1.45215 1.52474 1.57741 1.61366 1.63771 1.65334 1.66342 1.66999 1.67433 1.67733 1.67947 1.6811 1.68241 1.68352 1.6845 1.6854 1.68623 1.68702 1.68777 1.6885 1.6892 1.68988 1.69053 1.69117 1.69177 1.69237 1.69293 1.69349 1.69401 1.69452 1.69501 1.69548 1.69592 1.69635 1.69675 1.69714 1.6975 1.69785 1.69816 1.69847 1.69875 1.69901 1.69925 1.69947 1.69966 1.69984 1.69999 1.70013 1.70024 1.70034 1.70041 1.70046 1.70049 1.7005 1.70048 1.70045 1.70039 1.70032 1.70022 1.7001 1.69996 1.6998 1.69962 1.69942 1.69919 1.69895 1.69868 1.6984 1.69809 1.69776 1.69741 1.69704 1.69665 1.69624 1.69581 1.69536 1.69488 1.69439 1.69387 1.69334 1.69278 1.69221 1.69161 1.691 1.69036 1.6897 1.68901 1.68831 1.68758 1.68682 1.68602 1.68519 1.68428 1.6833 1.68218 1.68086 1.67921 1.67704 1.67402 1.66961 1.66296 1.65273 1.63688 1.61251 1.57581 1.52258 1.44936 1.35537 1.24406 1.12307 1.0021 0.889901 0.792089 0.710844 0.645698 0.594744 0.555546 0.525728 0.503203 0.486275 0.473587 0.464106 0.457028 0.451759 0.447837 0.444929 0.442772 0.44118 0.440004 0.439143 0.43851 0.438052 0.437716 0.437477 0.437302 0.43718 0.437091 0.43703 0.436985 0.436956 0.436934 0.43692 0.43691 0.436905 0.4369 0.436899 0.436897 0.436896 0.436894 0.436892 0.436889 0.436884 0.436879 0.436876 0.436277 0.436282 0.436287 0.436293 0.436296 0.436299 0.436299 0.436299 0.436298 0.436299 0.4363 0.436306 0.436314 0.436332 0.436357 0.436398 0.436456 0.436543 0.436664 0.436836 0.437074 0.437405 0.437856 0.438477 0.439317 0.440461 0.442002 0.444085 0.446883 0.450647 0.455691 0.462454 0.471497 0.48358 0.499684 0.521095 0.549429 0.58669 0.635186 0.697351 0.775224 0.869625 0.978983 1.09842 1.21977 1.33342 1.43114 1.50859 1.56574 1.6056 1.6323 1.64977 1.66106 1.6684 1.67323 1.67653 1.67886 1.6806 1.68198 1.68313 1.68413 1.68504 1.68587 1.68667 1.68742 1.68815 1.68884 1.68952 1.69017 1.6908 1.69141 1.692 1.69257 1.69312 1.69364 1.69415 1.69463 1.69511 1.69555 1.69598 1.69638 1.69677 1.69713 1.69747 1.69779 1.6981 1.69837 1.69864 1.69887 1.6991 1.69929 1.69947 1.69962 1.69976 1.69987 1.69997 1.70004 1.70009 1.70012 1.70013 1.70011 1.70008 1.70002 1.69995 1.69985 1.69973 1.69959 1.69943 1.69925 1.69905 1.69882 1.69858 1.69831 1.69803 1.69771 1.69739 1.69704 1.69667 1.69628 1.69587 1.69543 1.69499 1.69451 1.69402 1.6935 1.69297 1.69242 1.69185 1.69125 1.69064 1.69 1.68934 1.68866 1.68796 1.68722 1.68647 1.68567 1.68483 1.68391 1.68291 1.68175 1.68036 1.6786 1.67624 1.6729 1.668 1.66056 1.64911 1.6314 1.60435 1.56401 1.50628 1.42821 1.32996 1.216 1.09464 0.975475 0.866581 0.772724 0.695387 0.6337 0.585603 0.548666 0.520587 0.499378 0.483434 0.471476 0.462535 0.455855 0.450877 0.44717 0.444418 0.442374 0.440866 0.43975 0.438933 0.438331 0.437895 0.437576 0.437347 0.43718 0.437062 0.436976 0.436917 0.436872 0.436842 0.436818 0.436803 0.436789 0.43678 0.436771 0.436764 0.436756 0.43675 0.436741 0.436733 0.436724 0.436715 0.436706 0.4367 0.436112 0.436118 0.436127 0.436136 0.436145 0.436153 0.436158 0.436164 0.436168 0.436173 0.436178 0.436187 0.436199 0.436218 0.436244 0.436285 0.436342 0.436425 0.436541 0.436705 0.436931 0.437245 0.437672 0.43826 0.439054 0.440134 0.441589 0.443552 0.446189 0.449731 0.454475 0.460828 0.469316 0.48065 0.495745 0.515806 0.542354 0.577286 0.622824 0.681377 0.755105 0.845199 0.950772 1.06785 1.18908 1.30509 1.40712 1.48975 1.5519 1.59593 1.62576 1.64542 1.65818 1.66647 1.67191 1.67558 1.67814 1.68003 1.68149 1.68269 1.68372 1.68465 1.68549 1.68629 1.68704 1.68777 1.68846 1.68914 1.68979 1.69042 1.69102 1.69161 1.69218 1.69273 1.69325 1.69376 1.69424 1.69471 1.69515 1.69558 1.69598 1.69637 1.69673 1.69708 1.6974 1.69771 1.69798 1.69825 1.69848 1.69871 1.6989 1.69908 1.69923 1.69937 1.69948 1.69958 1.69965 1.6997 1.69973 1.69974 1.69972 1.69969 1.69963 1.69956 1.69946 1.69934 1.6992 1.69904 1.69885 1.69866 1.69843 1.69819 1.69792 1.69763 1.69732 1.697 1.69664 1.69628 1.69588 1.69548 1.69504 1.69459 1.69412 1.69363 1.69311 1.69259 1.69203 1.69146 1.69086 1.69025 1.68961 1.68896 1.68828 1.68758 1.68685 1.68609 1.68529 1.68444 1.68351 1.68247 1.68126 1.67978 1.67788 1.67528 1.67156 1.66605 1.65764 1.6447 1.62477 1.59455 1.55002 1.48727 1.40404 1.30153 1.18529 1.06412 0.947374 0.842292 0.752743 0.679537 0.621441 0.576282 0.541654 0.515348 0.495477 0.480533 0.469319 0.460927 0.454652 0.449973 0.446485 0.443893 0.441968 0.440545 0.439492 0.43872 0.438151 0.437738 0.437435 0.437218 0.437059 0.436946 0.436863 0.436805 0.436761 0.43673 0.436705 0.436687 0.436671 0.436658 0.436645 0.436633 0.436621 0.436609 0.436595 0.436582 0.436567 0.436554 0.436542 0.436535 0.435957 0.435965 0.435976 0.435989 0.436001 0.436014 0.436024 0.436034 0.436042 0.436052 0.43606 0.436072 0.436086 0.436107 0.436134 0.436174 0.436229 0.43631 0.436419 0.436575 0.436788 0.437085 0.437488 0.438041 0.438789 0.439804 0.44117 0.443013 0.445485 0.448803 0.453243 0.459183 0.467113 0.477693 0.491774 0.510479 0.535229 0.567813 0.610349 0.665198 0.734604 0.820077 0.921372 1.03544 1.15586 1.27371 1.37987 1.46791 1.53556 1.58434 1.61784 1.64012 1.65466 1.66412 1.67031 1.67445 1.67731 1.67938 1.68095 1.68221 1.68328 1.68423 1.68509 1.68589 1.68665 1.68737 1.68807 1.68874 1.68939 1.69002 1.69062 1.69121 1.69177 1.69232 1.69284 1.69335 1.69383 1.6943 1.69474 1.69517 1.69557 1.69596 1.69632 1.69666 1.69698 1.69729 1.69756 1.69783 1.69807 1.69829 1.69848 1.69866 1.69882 1.69896 1.69906 1.69916 1.69923 1.69928 1.69931 1.69932 1.6993 1.69927 1.69921 1.69914 1.69904 1.69893 1.69878 1.69862 1.69844 1.69824 1.69801 1.69777 1.6975 1.69722 1.6969 1.69658 1.69623 1.69586 1.69547 1.69506 1.69463 1.69418 1.6937 1.69322 1.6927 1.69218 1.69162 1.69105 1.69046 1.68985 1.68921 1.68856 1.68788 1.68718 1.68645 1.68569 1.68488 1.68402 1.68306 1.68199 1.68071 1.67912 1.67703 1.67414 1.66994 1.66366 1.65407 1.63933 1.61675 1.58283 1.53351 1.46526 1.37664 1.27006 1.15207 1.03179 0.918101 0.817317 0.732386 0.663484 0.609069 0.56689 0.534593 0.51007 0.491544 0.477605 0.467139 0.4593 0.453434 0.449057 0.44579 0.443361 0.441555 0.44022 0.439231 0.438505 0.43797 0.437581 0.437295 0.43709 0.436939 0.436832 0.436753 0.436696 0.436653 0.436621 0.436595 0.436575 0.436556 0.436539 0.436523 0.436507 0.43649 0.436474 0.436456 0.436438 0.43642 0.436403 0.436389 0.43638 0.435813 0.435822 0.435835 0.435851 0.435866 0.435882 0.435896 0.43591 0.435923 0.435935 0.435947 0.435962 0.435978 0.436 0.436027 0.436067 0.43612 0.436197 0.436301 0.436448 0.436648 0.436927 0.437305 0.437823 0.438523 0.439473 0.44075 0.442471 0.444778 0.447872 0.452008 0.457537 0.464912 0.474742 0.487815 0.505172 0.528134 0.558373 0.597899 0.648999 0.71396 0.79455 0.89111 1.0015 1.12032 1.23932 1.34926 1.44278 1.51636 1.57049 1.60826 1.63366 1.65036 1.66124 1.66836 1.67309 1.67631 1.67861 1.68032 1.68168 1.6828 1.68378 1.68465 1.68547 1.68623 1.68696 1.68765 1.68832 1.68896 1.68959 1.69019 1.69078 1.69134 1.69189 1.69241 1.69292 1.6934 1.69386 1.6943 1.69473 1.69513 1.69552 1.69588 1.69623 1.69654 1.69685 1.69713 1.69739 1.69763 1.69785 1.69804 1.69823 1.69838 1.69852 1.69863 1.69872 1.69879 1.69885 1.69887 1.69888 1.69887 1.69884 1.69878 1.6987 1.6986 1.69849 1.69834 1.69819 1.698 1.6978 1.69757 1.69733 1.69706 1.69678 1.69647 1.69614 1.69579 1.69542 1.69503 1.69463 1.69419 1.69375 1.69327 1.69279 1.69227 1.69175 1.69119 1.69063 1.69003 1.68943 1.68879 1.68814 1.68746 1.68677 1.68603 1.68527 1.68445 1.68357 1.68258 1.68145 1.68008 1.67835 1.67603 1.67276 1.66796 1.66075 1.64971 1.63278 1.60704 1.56882 1.51413 1.43995 1.34589 1.2356 1.11655 0.997944 0.887979 0.791945 0.711888 0.647411 0.596722 0.557532 0.52756 0.504811 0.487622 0.474682 0.464959 0.457671 0.452213 0.448137 0.445092 0.442827 0.441141 0.439894 0.43897 0.438291 0.43779 0.437426 0.437158 0.436965 0.436823 0.436721 0.436645 0.436591 0.436548 0.436516 0.436489 0.436466 0.436445 0.436426 0.436406 0.436387 0.436366 0.436346 0.436324 0.436302 0.436281 0.436261 0.436245 0.436235 0.435679 0.435689 0.435704 0.435722 0.43574 0.435759 0.435776 0.435794 0.435809 0.435825 0.435839 0.435856 0.435874 0.435897 0.435925 0.435964 0.436015 0.436088 0.436186 0.436324 0.436512 0.436772 0.437125 0.437608 0.43826 0.439144 0.440332 0.441932 0.444075 0.446947 0.450782 0.455905 0.462732 0.471824 0.483905 0.499936 0.521137 0.549063 0.585602 0.632952 0.693399 0.768909 0.860328 0.966387 1.08276 1.20206 1.3152 1.41409 1.49392 1.554 1.59668 1.62578 1.64508 1.65771 1.66597 1.67143 1.67513 1.67772 1.67961 1.68108 1.68227 1.68329 1.68419 1.68502 1.68578 1.68651 1.68721 1.68788 1.68852 1.68915 1.68975 1.69033 1.69089 1.69144 1.69195 1.69246 1.69294 1.69341 1.69385 1.69427 1.69467 1.69506 1.69542 1.69576 1.69608 1.69639 1.69666 1.69693 1.69716 1.69739 1.69758 1.69776 1.69791 1.69805 1.69816 1.69826 1.69833 1.69838 1.69841 1.69842 1.6984 1.69837 1.69831 1.69824 1.69814 1.69802 1.69788 1.69772 1.69754 1.69734 1.69711 1.69687 1.6966 1.69632 1.696 1.69568 1.69533 1.69496 1.69457 1.69417 1.69373 1.69329 1.69282 1.69233 1.69182 1.69129 1.69074 1.69018 1.68959 1.68898 1.68835 1.6877 1.68702 1.68633 1.68559 1.68481 1.68398 1.68308 1.68205 1.68085 1.67937 1.67745 1.67483 1.67108 1.66554 1.65717 1.64435 1.62479 1.59532 1.55215 1.4915 1.41107 1.31169 1.19829 1.07903 0.962947 0.857353 0.766466 0.691475 0.631489 0.584526 0.5483 0.520624 0.499621 0.483748 0.471791 0.4628 0.456056 0.451001 0.447222 0.444398 0.442296 0.44073 0.439571 0.438711 0.438079 0.437613 0.437274 0.437024 0.436843 0.43671 0.436615 0.436542 0.43649 0.436447 0.436415 0.436387 0.436363 0.436339 0.436318 0.436295 0.436273 0.436249 0.436225 0.4362 0.436176 0.436152 0.43613 0.436112 0.436101 0.435556 0.435566 0.435582 0.435602 0.435623 0.435644 0.435664 0.435684 0.435702 0.43572 0.435737 0.435756 0.435775 0.4