# vtk DataFile Version 3.0
Immiscible displacement
ASCII
DATASET RECTILINEAR_GRID
DIMENSIONS 400 100 1
X_COORDINATES 400 double
1 2 3 4 5 6 7 8 9 10 11 12 13 14 15 16 17 18 19 20 21 22 23 24 25 26 27 28 29 30 31 32 33 34 35 36 37 38 39 40 41 42 43 44 45 46 47 48 49 50 51 52 53 54 55 56 57 58 59 60 61 62 63 64 65 66 67 68 69 70 71 72 73 74 75 76 77 78 79 80 81 82 83 84 85 86 87 88 89 90 91 92 93 94 95 96 97 98 99 100 101 102 103 104 105 106 107 108 109 110 111 112 113 114 115 116 117 118 119 120 121 122 123 124 125 126 127 128 129 130 131 132 133 134 135 136 137 138 139 140 141 142 143 144 145 146 147 148 149 150 151 152 153 154 155 156 157 158 159 160 161 162 163 164 165 166 167 168 169 170 171 172 173 174 175 176 177 178 179 180 181 182 183 184 185 186 187 188 189 190 191 192 193 194 195 196 197 198 199 200 201 202 203 204 205 206 207 208 209 210 211 212 213 214 215 216 217 218 219 220 221 222 223 224 225 226 227 228 229 230 231 232 233 234 235 236 237 238 239 240 241 242 243 244 245 246 247 248 249 250 251 252 253 254 255 256 257 258 259 260 261 262 263 264 265 266 267 268 269 270 271 272 273 274 275 276 277 278 279 280 281 282 283 284 285 286 287 288 289 290 291 292 293 294 295 296 297 298 299 300 301 302 303 304 305 306 307 308 309 310 311 312 313 314 315 316 317 318 319 320 321 322 323 324 325 326 327 328 329 330 331 332 333 334 335 336 337 338 339 340 341 342 343 344 345 346 347 348 349 350 351 352 353 354 355 356 357 358 359 360 361 362 363 364 365 366 367 368 369 370 371 372 373 374 375 376 377 378 379 380 381 382 383 384 385 386 387 388 389 390 391 392 393 394 395 396 397 398 399 400 
Y_COORDINATES 100 double
1 2 3 4 5 6 7 8 9 10 11 12 13 14 15 16 17 18 19 20 21 22 23 24 25 26 27 28 29 30 31 32 33 34 35 36 37 38 39 40 41 42 43 44 45 46 47 48 49 50 51 52 53 54 55 56 57 58 59 60 61 62 63 64 65 66 67 68 69 70 71 72 73 74 75 76 77 78 79 80 81 82 83 84 85 86 87 88 89 90 91 92 93 94 95 96 97 98 99 100 
Z_COORDINATES 1 double
0
POINT_DATA 40000
SCALARS rho double 1
LOOKUP_TABLE default
0.477478 0.477477 0.477476 0.477474 0.477473 0.477472 0.477471 0.47747 0.477469 0.477469 0.477468 0.477468 0.477468 0.477467 0.477467 0.477467 0.477466 0.477466 0.477466 0.477465 0.477465 0.477464 0.477464 0.477463 0.477462 0.477461 0.47746 0.477459 0.477458 0.477457 0.477456 0.477454 0.477453 0.477451 0.47745 0.477448 0.477446 0.477444 0.477442 0.47744 0.477438 0.477436 0.477433 0.477431 0.477428 0.477426 0.477423 0.47742 0.477417 0.477414 0.477411 0.477408 0.477404 0.477401 0.477397 0.477394 0.47739 0.477386 0.477382 0.477378 0.477374 0.47737 0.477366 0.477361 0.477357 0.477352 0.477347 0.477343 0.477338 0.477333 0.477328 0.477322 0.477317 0.477312 0.477306 0.4773 0.477295 0.477289 0.477283 0.477277 0.477271 0.477265 0.477258 0.477252 0.477245 0.477239 0.477232 0.477226 0.477219 0.477212 0.477205 0.477198 0.477191 0.477184 0.477177 0.477169 0.477162 0.477155 0.477147 0.47714 0.477133 0.477125 0.477118 0.47711 0.477103 0.477096 0.477088 0.477081 0.477074 0.477067 0.47706 0.477053 0.477047 0.477041 0.477035 0.477029 0.477024 0.477019 0.477015 0.477012 0.47701 0.47701 0.477011 0.477016 0.477023 0.477034 0.477051 0.477076 0.47711 0.477157 0.47722 0.477305 0.47742 0.477574 0.477779 0.478053 0.478418 0.478904 0.47955 0.480411 0.481558 0.483085 0.485118 0.487828 0.491438 0.49625 0.502664 0.511212 0.522598 0.537752 0.557883 0.584544 0.619669 0.665557 0.724718 0.799464 0.891122 0.998887 1.11866 1.24272 1.36113 1.46467 1.5478 1.60967 1.65297 1.68196 1.70078 1.71279 1.72037 1.72515 1.72815 1.73005 1.73125 1.73202 1.7325 1.73282 1.73302 1.73316 1.73324 1.7333 1.73334 1.73336 1.73338 1.73339 1.7334 1.73341 1.73341 1.73341 1.73342 1.73342 1.73342 1.73342 1.73342 1.73342 1.73342 1.73342 1.73342 1.73342 1.73342 1.73342 1.73342 1.73342 1.73342 1.73342 1.73342 1.73342 1.73342 1.73342 1.73342 1.73342 1.73342 1.73342 1.73341 1.73341 1.7334 1.7334 1.73338 1.73337 1.73334 1.7333 1.73325 1.73316 1.73303 1.73282 1.73251 1.73202 1.73126 1.73006 1.72816 1.72516 1.72039 1.71282 1.70083 1.68202 1.65307 1.60981 1.54799 1.46492 1.36142 1.24304 1.11898 0.999185 0.891382 0.799681 0.724894 0.665697 0.619779 0.584631 0.557952 0.537807 0.522643 0.511249 0.502695 0.496277 0.491462 0.487849 0.485138 0.483103 0.481576 0.480428 0.479567 0.47892 0.478434 0.478069 0.477795 0.47759 0.477437 0.477322 0.477237 0.477174 0.477128 0.477094 0.47707 0.477054 0.477043 0.477036 0.477033 0.477032 0.477033 0.477036 0.47704 0.477045 0.47705 0.477057 0.477063 0.47707 0.477078 0.477086 0.477093 0.477102 0.47711 0.477118 0.477127 0.477135 0.477144 0.477153 0.477162 0.47717 0.477179 0.477188 0.477197 0.477206 0.477215 0.477224 0.477233 0.477241 0.47725 0.477259 0.477268 0.477276 0.477285 0.477294 0.477302 0.47731 0.477319 0.477327 0.477335 0.477343 0.477352 0.47736 0.477367 0.477375 0.477383 0.477391 0.477398 0.477406 0.477413 0.47742 0.477427 0.477434 0.477441 0.477448 0.477455 0.477462 0.477468 0.477475 0.477481 0.477487 0.477493 0.477499 0.477505 0.477511 0.477517 0.477523 0.477528 0.477533 0.477539 0.477544 0.477549 0.477554 0.477559 0.477564 0.477568 0.477573 0.477577 0.477581 0.477586 0.47759 0.477594 0.477597 0.477601 0.477605 0.477608 0.477611 0.477615 0.477618 0.477621 0.477624 0.477626 0.477629 0.477631 0.477634 0.477636 0.477638 0.47764 0.477642 0.477644 0.477645 0.477647 0.477648 0.477649 0.477651 0.477652 0.477653 0.477654 0.477654 0.477655 0.477656 0.477657 0.477658 0.477658 0.477659 0.47766 0.477661 0.477662 0.477663 0.477665 0.477666 0.477667 0.477668 0.467873 0.467872 0.467871 0.46787 0.467869 0.467868 0.467867 0.467866 0.467865 0.467865 0.467864 0.467864 0.467864 0.467863 0.467863 0.467863 0.467862 0.467862 0.467862 0.467861 0.467861 0.46786 0.467859 0.467859 0.467858 0.467857 0.467856 0.467855 0.467854 0.467853 0.467852 0.46785 0.467849 0.467848 0.467846 0.467844 0.467842 0.467841 0.467839 0.467837 0.467835 0.467832 0.46783 0.467828 0.467825 0.467823 0.46782 0.467817 0.467814 0.467811 0.467808 0.467805 0.467802 0.467798 0.467795 0.467791 0.467788 0.467784 0.46778 0.467776 0.467772 0.467768 0.467764 0.46776 0.467755 0.467751 0.467746 0.467742 0.467737 0.467732 0.467727 0.467722 0.467717 0.467711 0.467706 0.467701 0.467695 0.467689 0.467683 0.467678 0.467672 0.467666 0.46766 0.467653 0.467647 0.467641 0.467634 0.467628 0.467621 0.467614 0.467608 0.467601 0.467594 0.467587 0.46758 0.467573 0.467566 0.467559 0.467552 0.467545 0.467537 0.46753 0.467523 0.467516 0.467509 0.467502 0.467494 0.467487 0.46748 0.467474 0.467467 0.46746 0.467454 0.467448 0.467442 0.467437 0.467431 0.467427 0.467423 0.46742 0.467418 0.467418 0.467419 0.467423 0.46743 0.467441 0.467458 0.467481 0.467514 0.467559 0.46762 0.467702 0.467812 0.46796 0.468158 0.468421 0.468772 0.46924 0.469862 0.47069 0.471792 0.47326 0.475214 0.477816 0.481283 0.485901 0.492053 0.500247 0.511155 0.525662 0.544919 0.570401 0.603948 0.64775 0.704212 0.775589 0.863273 0.966741 1.08244 1.20337 1.3202 1.42388 1.5085 1.57254 1.6181 1.64902 1.66936 1.68248 1.69084 1.69614 1.69951 1.70164 1.703 1.70387 1.70443 1.7048 1.70503 1.70518 1.70529 1.70535 1.7054 1.70543 1.70545 1.70546 1.70547 1.70548 1.70549 1.70549 1.70549 1.70549 1.70549 1.7055 1.7055 1.7055 1.7055 1.7055 1.7055 1.7055 1.7055 1.7055 1.7055 1.7055 1.7055 1.7055 1.7055 1.7055 1.7055 1.7055 1.7055 1.7055 1.70549 1.70549 1.70549 1.70548 1.70548 1.70547 1.70545 1.70543 1.7054 1.70536 1.70529 1.70519 1.70503 1.7048 1.70444 1.70388 1.70301 1.70165 1.69952 1.69616 1.69086 1.68251 1.66941 1.6491 1.6182 1.57269 1.5087 1.42414 1.3205 1.20369 1.08275 0.967029 0.863524 0.775797 0.704381 0.647884 0.604054 0.570485 0.544986 0.525716 0.511199 0.500283 0.492083 0.485927 0.481306 0.477837 0.475233 0.473278 0.471809 0.470706 0.469878 0.469255 0.468788 0.468437 0.468173 0.467976 0.467828 0.467718 0.467636 0.467576 0.467531 0.467499 0.467476 0.46746 0.46745 0.467444 0.46744 0.46744 0.467441 0.467444 0.467447 0.467452 0.467457 0.467464 0.46747 0.467477 0.467484 0.467492 0.467499 0.467507 0.467515 0.467523 0.467532 0.46754 0.467549 0.467557 0.467566 0.467574 0.467583 0.467592 0.4676 0.467609 0.467617 0.467626 0.467635 0.467643 0.467652 0.46766 0.467669 0.467677 0.467686 0.467694 0.467702 0.46771 0.467718 0.467727 0.467735 0.467742 0.46775 0.467758 0.467766 0.467773 0.467781 0.467788 0.467796 0.467803 0.46781 0.467817 0.467824 0.467831 0.467838 0.467844 0.467851 0.467857 0.467864 0.46787 0.467876 0.467882 0.467888 0.467894 0.4679 0.467906 0.467911 0.467917 0.467922 0.467927 0.467932 0.467938 0.467942 0.467947 0.467952 0.467957 0.467961 0.467966 0.46797 0.467974 0.467978 0.467982 0.467986 0.46799 0.467993 0.467997 0.468 0.468003 0.468006 0.468009 0.468012 0.468015 0.468018 0.46802 0.468023 0.468025 0.468027 0.468029 0.468031 0.468033 0.468035 0.468036 0.468038 0.468039 0.46804 0.468042 0.468043 0.468044 0.468044 0.468045 0.468046 0.468047 0.468048 0.468048 0.468049 0.46805 0.468051 0.468052 0.468053 0.468054 0.468055 0.468056 0.468057 0.468058 0.460614 0.460613 0.460613 0.460612 0.460611 0.46061 0.460609 0.460608 0.460608 0.460607 0.460607 0.460607 0.460606 0.460606 0.460606 0.460605 0.460605 0.460605 0.460604 0.460604 0.460603 0.460603 0.460602 0.460602 0.460601 0.4606 0.460599 0.460598 0.460597 0.460596 0.460595 0.460593 0.460592 0.46059 0.460589 0.460587 0.460586 0.460584 0.460582 0.46058 0.460578 0.460576 0.460573 0.460571 0.460568 0.460566 0.460563 0.460561 0.460558 0.460555 0.460552 0.460549 0.460546 0.460542 0.460539 0.460536 0.460532 0.460528 0.460525 0.460521 0.460517 0.460513 0.460509 0.460505 0.4605 0.460496 0.460491 0.460487 0.460482 0.460478 0.460473 0.460468 0.460463 0.460458 0.460452 0.460447 0.460442 0.460436 0.46043 0.460425 0.460419 0.460413 0.460407 0.460401 0.460395 0.460389 0.460383 0.460376 0.46037 0.460363 0.460357 0.46035 0.460343 0.460337 0.46033 0.460323 0.460316 0.460309 0.460302 0.460295 0.460288 0.460281 0.460274 0.460267 0.46026 0.460254 0.460247 0.46024 0.460233 0.460226 0.46022 0.460214 0.460207 0.460201 0.460196 0.46019 0.460185 0.460181 0.460177 0.460174 0.460172 0.460172 0.460173 0.460177 0.460183 0.460194 0.460209 0.460231 0.460262 0.460305 0.460363 0.460442 0.460547 0.460688 0.460876 0.461127 0.461461 0.461906 0.462498 0.463285 0.464333 0.465728 0.467583 0.470053 0.47334 0.477715 0.483537 0.491284 0.501583 0.515262 0.533393 0.557352 0.588853 0.629946 0.682907 0.749937 0.832554 0.930671 1.04155 1.15924 1.27526 1.38076 1.46922 1.53802 1.58824 1.62315 1.64657 1.66194 1.67188 1.67826 1.68236 1.68498 1.68667 1.68775 1.68846 1.68892 1.68922 1.68942 1.68955 1.68964 1.6897 1.68974 1.68977 1.68979 1.6898 1.68981 1.68981 1.68982 1.68982 1.68983 1.68983 1.68983 1.68983 1.68983 1.68983 1.68983 1.68983 1.68983 1.68983 1.68983 1.68983 1.68983 1.68983 1.68983 1.68983 1.68983 1.68983 1.68983 1.68983 1.68983 1.68982 1.68982 1.68982 1.68981 1.6898 1.68979 1.68977 1.68974 1.6897 1.68964 1.68956 1.68942 1.68923 1.68892 1.68847 1.68776 1.68667 1.68499 1.68237 1.67828 1.6719 1.66198 1.64663 1.62323 1.58836 1.53818 1.46943 1.38103 1.27556 1.15955 1.04185 0.930947 0.832792 0.750134 0.683066 0.630073 0.588953 0.557431 0.533456 0.515312 0.501624 0.491318 0.483566 0.47774 0.473362 0.470073 0.467602 0.465745 0.46435 0.463301 0.462513 0.461921 0.461476 0.461142 0.460891 0.460703 0.460562 0.460457 0.460379 0.460322 0.460279 0.460249 0.460227 0.460212 0.460202 0.460197 0.460194 0.460193 0.460194 0.460197 0.460201 0.460205 0.460211 0.460217 0.460223 0.46023 0.460237 0.460244 0.460252 0.460259 0.460267 0.460275 0.460283 0.460291 0.460299 0.460308 0.460316 0.460324 0.460333 0.460341 0.46035 0.460358 0.460366 0.460375 0.460383 0.460392 0.4604 0.460408 0.460416 0.460425 0.460433 0.460441 0.460449 0.460457 0.460465 0.460472 0.46048 0.460488 0.460496 0.460503 0.460511 0.460518 0.460525 0.460532 0.46054 0.460547 0.460554 0.46056 0.460567 0.460574 0.460581 0.460587 0.460593 0.4606 0.460606 0.460612 0.460618 0.460624 0.46063 0.460636 0.460641 0.460647 0.460652 0.460658 0.460663 0.460668 0.460673 0.460678 0.460683 0.460687 0.460692 0.460697 0.460701 0.460705 0.460709 0.460713 0.460717 0.460721 0.460725 0.460729 0.460732 0.460736 0.460739 0.460742 0.460745 0.460748 0.460751 0.460754 0.460756 0.460759 0.460761 0.460763 0.460765 0.460767 0.460769 0.460771 0.460773 0.460774 0.460776 0.460777 0.460778 0.460779 0.460781 0.460781 0.460782 0.460783 0.460784 0.460785 0.460785 0.460786 0.460787 0.460788 0.460788 0.460789 0.46079 0.460791 0.460792 0.460793 0.460794 0.460795 0.455134 0.455134 0.455133 0.455132 0.455132 0.455131 0.45513 0.45513 0.455129 0.455129 0.455128 0.455128 0.455128 0.455127 0.455127 0.455127 0.455126 0.455126 0.455126 0.455125 0.455125 0.455124 0.455124 0.455123 0.455122 0.455121 0.455121 0.45512 0.455119 0.455117 0.455116 0.455115 0.455114 0.455112 0.455111 0.455109 0.455107 0.455105 0.455104 0.455102 0.455099 0.455097 0.455095 0.455093 0.45509 0.455088 0.455085 0.455083 0.45508 0.455077 0.455074 0.455071 0.455068 0.455065 0.455062 0.455058 0.455055 0.455051 0.455048 0.455044 0.45504 0.455036 0.455032 0.455028 0.455024 0.45502 0.455015 0.455011 0.455006 0.455001 0.454997 0.454992 0.454987 0.454982 0.454977 0.454972 0.454966 0.454961 0.454956 0.45495 0.454944 0.454939 0.454933 0.454927 0.454921 0.454915 0.454909 0.454903 0.454896 0.45489 0.454884 0.454877 0.454871 0.454864 0.454858 0.454851 0.454844 0.454838 0.454831 0.454824 0.454817 0.454811 0.454804 0.454797 0.45479 0.454783 0.454777 0.45477 0.454763 0.454757 0.454751 0.454744 0.454738 0.454733 0.454727 0.454722 0.454717 0.454712 0.454709 0.454706 0.454704 0.454703 0.454704 0.454707 0.454713 0.454723 0.454738 0.454759 0.454788 0.454828 0.454883 0.454957 0.455056 0.455189 0.455367 0.455604 0.455919 0.456339 0.456897 0.457639 0.458626 0.459938 0.461682 0.464002 0.467085 0.471184 0.47663 0.483866 0.49347 0.506201 0.523045 0.545262 0.574422 0.612418 0.66138 0.723443 0.800261 0.892224 0.997502 1.11136 1.22639 1.33411 1.42741 1.50242 1.55893 1.59933 1.62711 1.6457 1.65794 1.66592 1.67109 1.67445 1.67663 1.67805 1.67898 1.67959 1.67999 1.68026 1.68043 1.68055 1.68064 1.68069 1.68073 1.68076 1.68078 1.68079 1.6808 1.68081 1.68081 1.68082 1.68082 1.68082 1.68082 1.68082 1.68082 1.68082 1.68083 1.68083 1.68083 1.68083 1.68083 1.68083 1.68083 1.68083 1.68082 1.68082 1.68082 1.68082 1.68082 1.68082 1.68081 1.68081 1.6808 1.68079 1.68078 1.68076 1.68073 1.6807 1.68064 1.68056 1.68044 1.68026 1.67999 1.67959 1.67898 1.67806 1.67664 1.67446 1.67111 1.66594 1.65797 1.64575 1.62717 1.59943 1.55907 1.50261 1.42764 1.33439 1.22669 1.11167 0.997795 0.892487 0.800485 0.723627 0.661528 0.612536 0.574515 0.545335 0.523104 0.506249 0.493509 0.483898 0.476658 0.471207 0.467106 0.464021 0.4617 0.459955 0.458642 0.457654 0.456912 0.456353 0.455934 0.455618 0.455382 0.455204 0.455071 0.454972 0.454899 0.454844 0.454804 0.454776 0.454755 0.454741 0.454732 0.454727 0.454724 0.454724 0.454725 0.454728 0.454732 0.454736 0.454742 0.454747 0.454754 0.45476 0.454767 0.454774 0.454782 0.454789 0.454797 0.454804 0.454812 0.45482 0.454828 0.454836 0.454844 0.454853 0.454861 0.454869 0.454877 0.454885 0.454893 0.454902 0.45491 0.454918 0.454926 0.454934 0.454942 0.45495 0.454958 0.454966 0.454974 0.454981 0.454989 0.454997 0.455004 0.455012 0.455019 0.455027 0.455034 0.455041 0.455048 0.455055 0.455062 0.455069 0.455076 0.455082 0.455089 0.455096 0.455102 0.455108 0.455115 0.455121 0.455127 0.455133 0.455139 0.455145 0.45515 0.455156 0.455161 0.455167 0.455172 0.455177 0.455182 0.455187 0.455192 0.455197 0.455202 0.455206 0.455211 0.455215 0.45522 0.455224 0.455228 0.455232 0.455236 0.45524 0.455243 0.455247 0.45525 0.455254 0.455257 0.45526 0.455263 0.455266 0.455269 0.455271 0.455274 0.455276 0.455278 0.455281 0.455283 0.455285 0.455287 0.455288 0.45529 0.455292 0.455293 0.455294 0.455295 0.455297 0.455298 0.455299 0.455299 0.4553 0.455301 0.455302 0.455302 0.455303 0.455304 0.455304 0.455305 0.455306 0.455307 0.455308 0.455308 0.455309 0.45531 0.45531 0.451 0.450999 0.450999 0.450998 0.450998 0.450997 0.450997 0.450996 0.450996 0.450996 0.450995 0.450995 0.450995 0.450994 0.450994 0.450994 0.450993 0.450993 0.450993 0.450992 0.450992 0.450991 0.450991 0.45099 0.450989 0.450988 0.450988 0.450987 0.450986 0.450984 0.450983 0.450982 0.450981 0.450979 0.450978 0.450976 0.450974 0.450973 0.450971 0.450969 0.450967 0.450965 0.450962 0.45096 0.450958 0.450955 0.450953 0.45095 0.450947 0.450945 0.450942 0.450939 0.450936 0.450933 0.450929 0.450926 0.450923 0.450919 0.450916 0.450912 0.450908 0.450904 0.4509 0.450896 0.450892 0.450888 0.450884 0.45088 0.450875 0.450871 0.450866 0.450861 0.450856 0.450851 0.450846 0.450841 0.450836 0.450831 0.450826 0.45082 0.450815 0.450809 0.450804 0.450798 0.450792 0.450786 0.45078 0.450774 0.450768 0.450762 0.450756 0.450749 0.450743 0.450737 0.45073 0.450724 0.450717 0.450711 0.450704 0.450697 0.450691 0.450684 0.450677 0.450671 0.450664 0.450658 0.450651 0.450645 0.450638 0.450632 0.450626 0.45062 0.450614 0.450608 0.450602 0.450597 0.450592 0.450588 0.450584 0.450581 0.450579 0.450579 0.450579 0.450582 0.450587 0.450597 0.45061 0.450629 0.450657 0.450694 0.450746 0.450815 0.450908 0.451033 0.451199 0.451421 0.451716 0.452109 0.452631 0.453325 0.454246 0.45547 0.457095 0.459254 0.462118 0.465921 0.470964 0.477652 0.48651 0.498227 0.513694 0.534049 0.560716 0.595417 0.640122 0.696884 0.767458 0.852672 0.951581 1.06071 1.1739 1.28334 1.38155 1.46343 1.52732 1.57446 1.60777 1.63058 1.64588 1.65601 1.66268 1.66705 1.66991 1.6718 1.67304 1.67386 1.67441 1.67478 1.67502 1.67519 1.6753 1.67538 1.67544 1.67548 1.6755 1.67552 1.67554 1.67555 1.67555 1.67556 1.67556 1.67557 1.67557 1.67557 1.67557 1.67557 1.67557 1.67558 1.67558 1.67558 1.67558 1.67558 1.67557 1.67557 1.67557 1.67557 1.67557 1.67557 1.67557 1.67556 1.67556 1.67555 1.67554 1.67553 1.67551 1.67548 1.67544 1.67539 1.67531 1.67519 1.67503 1.67478 1.67441 1.67387 1.67305 1.6718 1.66992 1.66706 1.6627 1.65604 1.64592 1.63064 1.60785 1.57458 1.52748 1.46364 1.3818 1.28363 1.17421 1.06101 0.951863 0.852919 0.767667 0.697055 0.64026 0.595526 0.560802 0.534118 0.513749 0.498271 0.486546 0.477682 0.47099 0.465943 0.462139 0.459272 0.457112 0.455486 0.454262 0.45334 0.452646 0.452124 0.451731 0.451435 0.451214 0.451047 0.450923 0.45083 0.450761 0.45071 0.450673 0.450646 0.450627 0.450614 0.450606 0.450601 0.450599 0.450599 0.4506 0.450603 0.450607 0.450612 0.450617 0.450623 0.450629 0.450635 0.450642 0.450649 0.450656 0.450663 0.450671 0.450678 0.450686 0.450694 0.450702 0.45071 0.450717 0.450725 0.450733 0.450741 0.450749 0.450757 0.450765 0.450773 0.450781 0.450789 0.450797 0.450805 0.450813 0.45082 0.450828 0.450836 0.450843 0.450851 0.450859 0.450866 0.450873 0.450881 0.450888 0.450895 0.450902 0.450909 0.450916 0.450923 0.45093 0.450937 0.450943 0.45095 0.450956 0.450963 0.450969 0.450975 0.450981 0.450987 0.450993 0.450999 0.451005 0.45101 0.451016 0.451022 0.451027 0.451032 0.451037 0.451042 0.451047 0.451052 0.451057 0.451062 0.451067 0.451071 0.451075 0.45108 0.451084 0.451088 0.451092 0.451096 0.4511 0.451104 0.451107 0.451111 0.451114 0.451117 0.45112 0.451124 0.451127 0.451129 0.451132 0.451135 0.451137 0.45114 0.451142 0.451144 0.451146 0.451148 0.45115 0.451152 0.451153 0.451155 0.451156 0.451157 0.451159 0.45116 0.451161 0.451162 0.451163 0.451163 0.451164 0.451165 0.451165 0.451166 0.451167 0.451167 0.451168 0.451169 0.451169 0.45117 0.451171 0.451171 0.451172 0.451172 0.447882 0.447882 0.447881 0.447881 0.447881 0.44788 0.44788 0.447879 0.447879 0.447879 0.447879 0.447878 0.447878 0.447878 0.447878 0.447877 0.447877 0.447877 0.447876 0.447876 0.447875 0.447875 0.447874 0.447874 0.447873 0.447872 0.447871 0.44787 0.447869 0.447868 0.447867 0.447865 0.447864 0.447863 0.447861 0.44786 0.447858 0.447856 0.447854 0.447852 0.44785 0.447848 0.447846 0.447844 0.447841 0.447839 0.447837 0.447834 0.447831 0.447829 0.447826 0.447823 0.44782 0.447817 0.447813 0.44781 0.447807 0.447803 0.4478 0.447796 0.447793 0.447789 0.447785 0.447781 0.447777 0.447773 0.447769 0.447765 0.44776 0.447756 0.447751 0.447747 0.447742 0.447737 0.447732 0.447727 0.447722 0.447717 0.447712 0.447706 0.447701 0.447696 0.44769 0.447685 0.447679 0.447673 0.447667 0.447661 0.447655 0.447649 0.447643 0.447637 0.447631 0.447625 0.447618 0.447612 0.447606 0.447599 0.447593 0.447586 0.44758 0.447573 0.447567 0.44756 0.447554 0.447548 0.447541 0.447535 0.447528 0.447522 0.447516 0.44751 0.447504 0.447499 0.447493 0.447488 0.447483 0.447479 0.447475 0.447472 0.44747 0.447469 0.447469 0.447472 0.447477 0.447485 0.447497 0.447515 0.44754 0.447575 0.447623 0.447687 0.447774 0.44789 0.448045 0.448252 0.448526 0.448891 0.449376 0.45002 0.450873 0.452006 0.453508 0.4555 0.458139 0.461635 0.466263 0.472386 0.480477 0.491154 0.505213 0.523671 0.5478 0.579153 0.619533 0.67088 0.735 0.813073 0.904934 1.00832 1.11843 1.2284 1.33078 1.41952 1.49141 1.54633 1.58631 1.6144 1.63363 1.64659 1.65524 1.66097 1.66478 1.6673 1.66898 1.6701 1.67085 1.67136 1.6717 1.67194 1.6721 1.67221 1.67229 1.67234 1.67238 1.67241 1.67243 1.67245 1.67246 1.67247 1.67247 1.67248 1.67248 1.67248 1.67249 1.67249 1.67249 1.67249 1.67249 1.67249 1.67249 1.67249 1.67249 1.67249 1.67249 1.67248 1.67248 1.67248 1.67247 1.67247 1.67246 1.67245 1.67243 1.67241 1.67239 1.67235 1.67229 1.67221 1.6721 1.67194 1.67171 1.67136 1.67086 1.67011 1.66899 1.66731 1.66479 1.66099 1.65526 1.64663 1.63369 1.61447 1.58642 1.54647 1.4916 1.41975 1.33105 1.2287 1.11873 1.00861 0.905202 0.813304 0.735194 0.671037 0.619659 0.579253 0.54788 0.523734 0.505264 0.491195 0.480511 0.472415 0.466287 0.461656 0.458158 0.455517 0.453524 0.452022 0.450888 0.450034 0.44939 0.448905 0.44854 0.448266 0.448059 0.447904 0.447789 0.447702 0.447638 0.447591 0.447556 0.447532 0.447514 0.447502 0.447495 0.447491 0.447489 0.447489 0.447491 0.447494 0.447498 0.447502 0.447507 0.447513 0.447519 0.447526 0.447532 0.447539 0.447546 0.447553 0.44756 0.447568 0.447575 0.447583 0.447591 0.447598 0.447606 0.447614 0.447622 0.447629 0.447637 0.447645 0.447653 0.447661 0.447668 0.447676 0.447684 0.447692 0.447699 0.447707 0.447714 0.447722 0.447729 0.447737 0.447744 0.447752 0.447759 0.447766 0.447773 0.44778 0.447787 0.447794 0.447801 0.447807 0.447814 0.447821 0.447827 0.447833 0.44784 0.447846 0.447852 0.447858 0.447864 0.44787 0.447876 0.447882 0.447887 0.447893 0.447898 0.447904 0.447909 0.447914 0.447919 0.447924 0.447929 0.447934 0.447939 0.447944 0.447948 0.447952 0.447957 0.447961 0.447965 0.447969 0.447973 0.447977 0.447981 0.447984 0.447988 0.447991 0.447995 0.447998 0.448001 0.448004 0.448007 0.44801 0.448013 0.448015 0.448018 0.44802 0.448022 0.448024 0.448026 0.448028 0.44803 0.448032 0.448033 0.448035 0.448036 0.448038 0.448039 0.44804 0.448041 0.448042 0.448043 0.448043 0.448044 0.448045 0.448045 0.448046 0.448047 0.448047 0.448048 0.448048 0.448049 0.448049 0.44805 0.44805 0.44805 0.448051 0.445531 0.445531 0.445531 0.445531 0.44553 0.44553 0.44553 0.44553 0.445529 0.445529 0.445529 0.445529 0.445529 0.445528 0.445528 0.445528 0.445528 0.445527 0.445527 0.445527 0.445526 0.445526 0.445525 0.445524 0.445523 0.445523 0.445522 0.445521 0.44552 0.445519 0.445517 0.445516 0.445515 0.445513 0.445512 0.44551 0.445509 0.445507 0.445505 0.445503 0.445501 0.445499 0.445497 0.445495 0.445492 0.44549 0.445487 0.445485 0.445482 0.44548 0.445477 0.445474 0.445471 0.445468 0.445465 0.445461 0.445458 0.445455 0.445451 0.445448 0.445444 0.44544 0.445437 0.445433 0.445429 0.445425 0.445421 0.445416 0.445412 0.445408 0.445403 0.445399 0.445394 0.445389 0.445385 0.44538 0.445375 0.44537 0.445365 0.445359 0.445354 0.445349 0.445343 0.445338 0.445332 0.445327 0.445321 0.445315 0.445309 0.445303 0.445297 0.445291 0.445285 0.445279 0.445273 0.445267 0.445261 0.445254 0.445248 0.445242 0.445235 0.445229 0.445223 0.445216 0.44521 0.445204 0.445197 0.445191 0.445185 0.445179 0.445173 0.445167 0.445161 0.445156 0.44515 0.445145 0.44514 0.445136 0.445132 0.445129 0.445127 0.445125 0.445125 0.445127 0.445132 0.445139 0.44515 0.445167 0.44519 0.445222 0.445266 0.445326 0.445406 0.445513 0.445656 0.445847 0.446101 0.446438 0.446885 0.447478 0.448264 0.449305 0.450682 0.452506 0.454918 0.458107 0.462319 0.467878 0.475205 0.484848 0.497512 0.514096 0.535728 0.563791 0.599914 0.645905 0.70356 0.774301 0.858596 0.955255 1.06085 1.16973 1.27491 1.36978 1.44977 1.51319 1.56094 1.59544 1.61962 1.63622 1.64747 1.65503 1.6601 1.6635 1.66578 1.66731 1.66835 1.66906 1.66954 1.66987 1.6701 1.67026 1.67037 1.67045 1.67051 1.67055 1.67058 1.6706 1.67062 1.67063 1.67064 1.67065 1.67065 1.67066 1.67066 1.67066 1.67066 1.67066 1.67066 1.67066 1.67066 1.67066 1.67066 1.67066 1.67066 1.67066 1.67065 1.67065 1.67064 1.67063 1.67062 1.6706 1.67058 1.67055 1.67051 1.67046 1.67038 1.67026 1.6701 1.66987 1.66954 1.66906 1.66836 1.66732 1.66579 1.66351 1.66012 1.65506 1.6475 1.63627 1.61968 1.59553 1.56107 1.51336 1.44998 1.37003 1.2752 1.17004 1.06116 0.955539 0.858848 0.774515 0.703737 0.646048 0.600028 0.563882 0.535801 0.514154 0.497559 0.484886 0.475236 0.467904 0.462342 0.458127 0.454936 0.452523 0.450698 0.449319 0.448278 0.447492 0.446899 0.446452 0.446115 0.445861 0.44567 0.445527 0.44542 0.44534 0.445281 0.445237 0.445205 0.445183 0.445167 0.445156 0.445149 0.445146 0.445145 0.445145 0.445147 0.44515 0.445154 0.445159 0.445164 0.44517 0.445176 0.445182 0.445188 0.445195 0.445202 0.445209 0.445216 0.445224 0.445231 0.445239 0.445246 0.445254 0.445261 0.445269 0.445276 0.445284 0.445292 0.4453 0.445307 0.445315 0.445322 0.44533 0.445338 0.445345 0.445353 0.44536 0.445367 0.445375 0.445382 0.44539 0.445397 0.445404 0.445411 0.445418 0.445425 0.445432 0.445439 0.445445 0.445452 0.445459 0.445465 0.445472 0.445478 0.445484 0.445491 0.445497 0.445503 0.445509 0.445515 0.44552 0.445526 0.445532 0.445537 0.445543 0.445548 0.445553 0.445559 0.445564 0.445569 0.445574 0.445579 0.445583 0.445588 0.445593 0.445597 0.445601 0.445606 0.44561 0.445614 0.445618 0.445622 0.445626 0.445629 0.445633 0.445636 0.44564 0.445643 0.445646 0.445649 0.445652 0.445655 0.445658 0.445661 0.445663 0.445666 0.445668 0.44567 0.445672 0.445674 0.445676 0.445678 0.44568 0.445681 0.445683 0.445684 0.445686 0.445687 0.445688 0.445689 0.44569 0.44569 0.445691 0.445692 0.445693 0.445693 0.445694 0.445694 0.445695 0.445695 0.445696 0.445696 0.445696 0.445697 0.445697 0.445697 0.445697 0.443759 0.443759 0.443759 0.443759 0.443759 0.443759 0.443759 0.443759 0.443759 0.443758 0.443758 0.443758 0.443758 0.443758 0.443758 0.443757 0.443757 0.443757 0.443756 0.443756 0.443755 0.443755 0.443754 0.443754 0.443753 0.443752 0.443751 0.44375 0.443749 0.443748 0.443747 0.443746 0.443744 0.443743 0.443741 0.44374 0.443738 0.443736 0.443735 0.443733 0.443731 0.443729 0.443726 0.443724 0.443722 0.44372 0.443717 0.443715 0.443712 0.443709 0.443706 0.443704 0.443701 0.443698 0.443694 0.443691 0.443688 0.443685 0.443681 0.443678 0.443674 0.443671 0.443667 0.443663 0.443659 0.443655 0.443651 0.443647 0.443643 0.443638 0.443634 0.443629 0.443625 0.44362 0.443616 0.443611 0.443606 0.443601 0.443596 0.443591 0.443586 0.44358 0.443575 0.44357 0.443564 0.443559 0.443553 0.443547 0.443541 0.443536 0.44353 0.443524 0.443518 0.443512 0.443506 0.4435 0.443494 0.443487 0.443481 0.443475 0.443469 0.443463 0.443456 0.44345 0.443444 0.443438 0.443431 0.443425 0.443419 0.443413 0.443407 0.443401 0.443396 0.44339 0.443385 0.44338 0.443375 0.443371 0.443367 0.443363 0.443361 0.443359 0.443359 0.443361 0.443364 0.443371 0.44338 0.443395 0.443417 0.443446 0.443486 0.443541 0.443615 0.443714 0.443845 0.444021 0.444254 0.444563 0.444973 0.445516 0.446234 0.447184 0.448439 0.450097 0.452286 0.455173 0.458977 0.463985 0.470568 0.479208 0.490524 0.505304 0.524538 0.549445 0.581481 0.622304 0.673645 0.737059 0.813477 0.902603 1.00229 1.10822 1.21431 1.3139 1.40143 1.47367 1.53007 1.57213 1.6024 1.62363 1.63828 1.64827 1.65505 1.65964 1.66275 1.66486 1.6663 1.66728 1.66796 1.66843 1.66876 1.66899 1.66915 1.66926 1.66935 1.66941 1.66945 1.66949 1.66951 1.66953 1.66954 1.66955 1.66956 1.66957 1.66957 1.66957 1.66958 1.66958 1.66958 1.66958 1.66958 1.66958 1.66958 1.66957 1.66957 1.66957 1.66956 1.66955 1.66954 1.66953 1.66951 1.66949 1.66945 1.66941 1.66935 1.66927 1.66915 1.66899 1.66876 1.66843 1.66796 1.66729 1.6663 1.66487 1.66276 1.65965 1.65507 1.6483 1.63832 1.62369 1.60248 1.57224 1.53022 1.47386 1.40167 1.31418 1.21461 1.10853 1.00259 0.902872 0.813711 0.737255 0.673806 0.622433 0.581585 0.549527 0.524603 0.505357 0.490567 0.479243 0.470597 0.46401 0.458999 0.455192 0.452303 0.450113 0.448454 0.447198 0.446248 0.445529 0.444986 0.444576 0.444267 0.444034 0.443859 0.443727 0.443629 0.443555 0.443501 0.443461 0.443432 0.443411 0.443397 0.443388 0.443382 0.443379 0.443378 0.443379 0.443381 0.443384 0.443388 0.443393 0.443398 0.443404 0.44341 0.443416 0.443423 0.443429 0.443436 0.443443 0.44345 0.443458 0.443465 0.443472 0.443479 0.443487 0.443494 0.443502 0.443509 0.443517 0.443524 0.443532 0.44354 0.443547 0.443555 0.443562 0.443569 0.443577 0.443584 0.443592 0.443599 0.443606 0.443613 0.443621 0.443628 0.443635 0.443642 0.443649 0.443655 0.443662 0.443669 0.443676 0.443682 0.443689 0.443695 0.443701 0.443708 0.443714 0.44372 0.443726 0.443732 0.443738 0.443744 0.443749 0.443755 0.443761 0.443766 0.443771 0.443777 0.443782 0.443787 0.443792 0.443797 0.443802 0.443807 0.443811 0.443816 0.443821 0.443825 0.443829 0.443833 0.443838 0.443842 0.443846 0.443849 0.443853 0.443857 0.443861 0.443864 0.443867 0.443871 0.443874 0.443877 0.44388 0.443883 0.443885 0.443888 0.443891 0.443893 0.443895 0.443897 0.4439 0.443902 0.443903 0.443905 0.443907 0.443908 0.44391 0.443911 0.443913 0.443914 0.443915 0.443916 0.443917 0.443917 0.443918 0.443919 0.443919 0.44392 0.44392 0.443921 0.443921 0.443922 0.443922 0.443922 0.443923 0.443923 0.443923 0.443923 0.443923 0.442424 0.442424 0.442424 0.442424 0.442424 0.442424 0.442424 0.442424 0.442424 0.442424 0.442424 0.442424 0.442424 0.442423 0.442423 0.442423 0.442423 0.442423 0.442422 0.4