# vtk DataFile Version 3.0
Immiscible displacement
ASCII
DATASET RECTILINEAR_GRID
DIMENSIONS 200 200 1
X_COORDINATES 200 double
1 2 3 4 5 6 7 8 9 10 11 12 13 14 15 16 17 18 19 20 21 22 23 24 25 26 27 28 29 30 31 32 33 34 35 36 37 38 39 40 41 42 43 44 45 46 47 48 49 50 51 52 53 54 55 56 57 58 59 60 61 62 63 64 65 66 67 68 69 70 71 72 73 74 75 76 77 78 79 80 81 82 83 84 85 86 87 88 89 90 91 92 93 94 95 96 97 98 99 100 101 102 103 104 105 106 107 108 109 110 111 112 113 114 115 116 117 118 119 120 121 122 123 124 125 126 127 128 129 130 131 132 133 134 135 136 137 138 139 140 141 142 143 144 145 146 147 148 149 150 151 152 153 154 155 156 157 158 159 160 161 162 163 164 165 166 167 168 169 170 171 172 173 174 175 176 177 178 179 180 181 182 183 184 185 186 187 188 189 190 191 192 193 194 195 196 197 198 199 200 
Y_COORDINATES 200 double
1 2 3 4 5 6 7 8 9 10 11 12 13 14 15 16 17 18 19 20 21 22 23 24 25 26 27 28 29 30 31 32 33 34 35 36 37 38 39 40 41 42 43 44 45 46 47 48 49 50 51 52 53 54 55 56 57 58 59 60 61 62 63 64 65 66 67 68 69 70 71 72 73 74 75 76 77 78 79 80 81 82 83 84 85 86 87 88 89 90 91 92 93 94 95 96 97 98 99 100 101 102 103 104 105 106 107 108 109 110 111 112 113 114 115 116 117 118 119 120 121 122 123 124 125 126 127 128 129 130 131 132 133 134 135 136 137 138 139 140 141 142 143 144 145 146 147 148 149 150 151 152 153 154 155 156 157 158 159 160 161 162 163 164 165 166 167 168 169 170 171 172 173 174 175 176 177 178 179 180 181 182 183 184 185 186 187 188 189 190 191 192 193 194 195 196 197 198 199 200 
Z_COORDINATES 1 double
0
POINT_DATA 40000
SCALARS rho double 1
LOOKUP_TABLE default
0.42988 0.429801 0.429694 0.429582 0.429479 0.429393 0.429327 0.429285 0.429269 0.429281 0.429322 0.429395 0.429503 0.429648 0.429836 0.430072 0.430364 0.430724 0.431165 0.431708 0.43238 0.433218 0.434269 0.435603 0.437308 0.439508 0.442365 0.446102 0.451014 0.457504 0.4661 0.477513 0.492677 0.512815 0.53949 0.574656 0.620618 0.679878 0.754686 0.846241 0.953513 1.07215 1.19426 1.30995 1.4103 1.49019 1.54905 1.58975 1.61651 1.63347 1.64389 1.65011 1.65371 1.65568 1.65667 1.65705 1.65707 1.65687 1.65654 1.65614 1.65569 1.65523 1.65475 1.65427 1.65379 1.65332 1.65285 1.65239 1.65194 1.65151 1.65108 1.65067 1.65026 1.64987 1.64949 1.64913 1.64877 1.64844 1.64811 1.64781 1.64751 1.64723 1.64696 1.64671 1.64647 1.64625 1.64604 1.64585 1.64567 1.64551 1.64536 1.64524 1.64512 1.64502 1.64493 1.64486 1.6448 1.64477 1.64474 1.64473 1.64474 1.64476 1.64479 1.64485 1.64491 1.645 1.64509 1.64521 1.64533 1.64548 1.64563 1.64581 1.646 1.6462 1.64642 1.64666 1.64691 1.64717 1.64745 1.64775 1.64806 1.64838 1.64872 1.64907 1.64943 1.64982 1.65021 1.65061 1.65103 1.65146 1.6519 1.65235 1.65281 1.65328 1.65375 1.65424 1.65472 1.6552 1.65567 1.65612 1.65652 1.65685 1.65705 1.65703 1.65663 1.65563 1.65362 1.64997 1.64365 1.63309 1.61591 1.58882 1.54767 1.48826 1.4078 1.30695 1.19098 1.06888 0.950501 0.843657 0.752594 0.678265 0.619426 0.573815 0.53893 0.512476 0.492511 0.47748 0.466171 0.457656 0.451231 0.446369 0.442674 0.439851 0.43768 0.436 0.434687 0.433654 0.432833 0.432176 0.431645 0.431216 0.430866 0.430583 0.430355 0.430173 0.430032 0.429927 0.429855 0.429812 0.429798 0.42981 0.429846 0.429906 0.429986 0.430084 0.430197 0.430315 0.430427 0.430509 0.429793 0.429733 0.429643 0.429544 0.429451 0.429372 0.429312 0.429275 0.429263 0.429278 0.429323 0.429399 0.429508 0.429656 0.429845 0.430083 0.430375 0.430736 0.431177 0.431721 0.432391 0.433228 0.434277 0.435608 0.437307 0.439501 0.442347 0.446072 0.450968 0.457434 0.465999 0.477371 0.492478 0.512541 0.539116 0.574151 0.619943 0.678995 0.753558 0.844854 0.95189 1.07037 1.19245 1.30827 1.40888 1.48907 1.54824 1.58919 1.61614 1.63324 1.64374 1.65003 1.65366 1.65567 1.65667 1.65706 1.65709 1.6569 1.65657 1.65617 1.65572 1.65526 1.65477 1.6543 1.65381 1.65335 1.65287 1.65242 1.65196 1.65153 1.6511 1.65069 1.65028 1.64989 1.6495 1.64914 1.64879 1.64845 1.64812 1.64782 1.64751 1.64724 1.64696 1.64672 1.64647 1.64625 1.64604 1.64585 1.64567 1.64551 1.64536 1.64523 1.64511 1.64502 1.64492 1.64486 1.6448 1.64476 1.64473 1.64473 1.64473 1.64475 1.64479 1.64484 1.6449 1.64499 1.64508 1.6452 1.64533 1.64548 1.64563 1.64581 1.646 1.64621 1.64642 1.64667 1.64691 1.64718 1.64746 1.64776 1.64806 1.6484 1.64873 1.64909 1.64945 1.64984 1.65022 1.65063 1.65105 1.65148 1.65192 1.65238 1.65283 1.65331 1.65378 1.65427 1.65475 1.65523 1.6557 1.65615 1.65655 1.65688 1.65707 1.65704 1.65663 1.65562 1.65358 1.64989 1.64351 1.63286 1.61554 1.58825 1.54685 1.48714 1.40637 1.30527 1.18918 1.06711 0.948889 0.842281 0.751476 0.67739 0.618758 0.573315 0.538559 0.512205 0.492313 0.477339 0.46607 0.457586 0.451183 0.446339 0.442656 0.439843 0.437678 0.436003 0.434694 0.433663 0.432843 0.432187 0.431657 0.431227 0.430877 0.430593 0.430363 0.43018 0.430037 0.429931 0.429856 0.429811 0.429794 0.429802 0.429834 0.429889 0.429963 0.430055 0.430157 0.430263 0.430358 0.43042 0.429666 0.429623 0.429553 0.429474 0.429397 0.429331 0.429282 0.429254 0.429249 0.429271 0.42932 0.429401 0.429515 0.429666 0.429858 0.430098 0.430393 0.430754 0.431196 0.431739 0.432409 0.433242 0.434287 0.435611 0.437301 0.439481 0.44231 0.44601 0.450872 0.457293 0.465795 0.477084 0.492078 0.511989 0.538361 0.573131 0.618583 0.677213 0.751284 0.842059 0.948622 1.06679 1.18882 1.3049 1.40601 1.48683 1.5466 1.58806 1.6154 1.63276 1.64345 1.64987 1.65358 1.65563 1.65666 1.65708 1.65712 1.65693 1.65661 1.65622 1.65577 1.65531 1.65482 1.65435 1.65386 1.65339 1.65292 1.65246 1.65201 1.65157 1.65114 1.65072 1.65031 1.64992 1.64954 1.64918 1.64882 1.64848 1.64815 1.64784 1.64753 1.64726 1.64698 1.64673 1.64649 1.64627 1.64605 1.64586 1.64568 1.64552 1.64537 1.64524 1.64511 1.64502 1.64492 1.64486 1.6448 1.64476 1.64473 1.64473 1.64473 1.64475 1.64479 1.64484 1.64491 1.64499 1.64509 1.64521 1.64533 1.64548 1.64564 1.64582 1.64601 1.64622 1.64644 1.64668 1.64693 1.6472 1.64748 1.64778 1.64809 1.64842 1.64876 1.64912 1.64948 1.64987 1.65026 1.65067 1.65109 1.65152 1.65196 1.65242 1.65288 1.65335 1.65383 1.65432 1.6548 1.65528 1.65575 1.6562 1.65659 1.65692 1.6571 1.65706 1.65663 1.65558 1.65349 1.64972 1.64322 1.63238 1.61479 1.58711 1.5452 1.48489 1.40349 1.3019 1.18556 1.06354 0.945642 0.839507 0.749222 0.675624 0.61741 0.572304 0.537811 0.511657 0.491915 0.477052 0.465866 0.457444 0.451086 0.446275 0.442617 0.439822 0.437671 0.436005 0.434702 0.433676 0.432859 0.432205 0.431675 0.431245 0.430894 0.430608 0.430376 0.430191 0.430044 0.429934 0.429855 0.429806 0.429783 0.429785 0.42981 0.429856 0.42992 0.429998 0.430085 0.430171 0.430246 0.430291 0.429522 0.429492 0.429442 0.429382 0.429323 0.429273 0.429237 0.429221 0.429226 0.429256 0.429313 0.4294 0.42952 0.429676 0.429872 0.430115 0.430412 0.430776 0.431218 0.43176 0.432427 0.433257 0.434295 0.43561 0.437286 0.439446 0.442249 0.445912 0.450723 0.457076 0.465486 0.476648 0.491473 0.511155 0.537223 0.571593 0.616531 0.674526 0.747856 0.837842 0.943688 1.06138 1.18333 1.29978 1.40165 1.4834 1.5441 1.58633 1.61426 1.63204 1.64301 1.6496 1.65344 1.65557 1.65665 1.6571 1.65715 1.65698 1.65667 1.65628 1.65583 1.65537 1.65489 1.65441 1.65393 1.65346 1.65298 1.65253 1.65207 1.65163 1.6512 1.65078 1.65037 1.64998 1.64959 1.64923 1.64886 1.64853 1.64819 1.64788 1.64757 1.64729 1.64702 1.64676 1.64652 1.6463 1.64608 1.64589 1.6457 1.64554 1.64538 1.64526 1.64513 1.64503 1.64494 1.64487 1.64481 1.64477 1.64474 1.64474 1.64474 1.64477 1.6448 1.64486 1.64492 1.64501 1.64511 1.64523 1.64535 1.64551 1.64566 1.64585 1.64604 1.64625 1.64647 1.64672 1.64697 1.64724 1.64752 1.64783 1.64814 1.64847 1.64881 1.64917 1.64954 1.64993 1.65032 1.65073 1.65115 1.65159 1.65203 1.65249 1.65295 1.65342 1.6539 1.65438 1.65486 1.65535 1.65581 1.65626 1.65665 1.65697 1.65713 1.65707 1.65661 1.65551 1.65335 1.64946 1.64277 1.63164 1.61364 1.58537 1.54269 1.48145 1.39912 1.29678 1.18008 1.05815 0.940736 0.83532 0.745821 0.67296 0.615377 0.570779 0.536683 0.51083 0.491314 0.47662 0.465558 0.457227 0.450937 0.446176 0.442554 0.439786 0.437654 0.436002 0.434708 0.433689 0.432876 0.432224 0.431695 0.431265 0.430912 0.430625 0.430389 0.430201 0.43005 0.429935 0.429851 0.429795 0.429765 0.429759 0.429774 0.429808 0.429859 0.429921 0.42999 0.430057 0.430112 0.430145 0.429373 0.429353 0.429318 0.429276 0.429235 0.429201 0.429181 0.429177 0.429194 0.429234 0.4293 0.429395 0.429521 0.429683 0.429883 0.430131 0.430431 0.430796 0.431239 0.431781 0.432445 0.433269 0.434299 0.435601 0.437259 0.439394 0.442161 0.445776 0.450521 0.456783 0.46507 0.476065 0.490663 0.510041 0.535703 0.569539 0.613792 0.670938 0.743274 0.832198 0.937072 1.0541 1.17591 1.29285 1.39571 1.47873 1.54067 1.58396 1.61269 1.63104 1.64239 1.64924 1.65323 1.65547 1.65662 1.65711 1.65719 1.65704 1.65674 1.65635 1.65591 1.65546 1.65498 1.6545 1.65402 1.65354 1.65307 1.65261 1.65215 1.65172 1.65128 1.65086 1.65045 1.65005 1.64966 1.6493 1.64893 1.64859 1.64826 1.64794 1.64763 1.64735 1.64707 1.64682 1.64657 1.64634 1.64612 1.64593 1.64574 1.64558 1.64542 1.64529 1.64517 1.64507 1.64497 1.64491 1.64484 1.64481 1.64478 1.64477 1.64477 1.6448 1.64483 1.64489 1.64496 1.64505 1.64514 1.64527 1.64539 1.64555 1.64571 1.64589 1.64608 1.6463 1.64652 1.64677 1.64702 1.6473 1.64758 1.64789 1.6482 1.64854 1.64888 1.64924 1.64961 1.65 1.6504 1.65081 1.65123 1.65167 1.65211 1.65257 1.65303 1.65351 1.65398 1.65447 1.65495 1.65543 1.65589 1.65634 1.65672 1.65702 1.65717 1.65709 1.65658 1.65541 1.65314 1.64909 1.64214 1.63063 1.61205 1.58298 1.53924 1.47675 1.39317 1.28985 1.17267 1.0509 0.934157 0.829716 0.741275 0.669402 0.612662 0.568744 0.535176 0.509725 0.490511 0.476041 0.465145 0.456936 0.450736 0.44604 0.442465 0.439732 0.437625 0.435991 0.43471 0.4337 0.432892 0.432243 0.431715 0.431285 0.43093 0.43064 0.430402 0.430208 0.430053 0.429932 0.429841 0.429778 0.429739 0.429723 0.429727 0.429749 0.429784 0.42983 0.429881 0.42993 0.42997 0.429993 0.429224 0.429212 0.429189 0.429163 0.429139 0.429122 0.429116 0.429126 0.429155 0.429206 0.429281 0.429385 0.429518 0.429686 0.429892 0.430144 0.430447 0.430815 0.431258 0.431798 0.432459 0.433277 0.434296 0.435583 0.437219 0.439323 0.442047 0.445602 0.450265 0.456415 0.464548 0.475336 0.489652 0.508651 0.533808 0.566979 0.610378 0.666462 0.737552 0.825136 0.928766 1.04492 1.16652 1.28401 1.38811 1.47271 1.53624 1.58088 1.61065 1.62973 1.64158 1.64876 1.65296 1.65533 1.65657 1.65711 1.65723 1.6571 1.65682 1.65644 1.65601 1.65556 1.65508 1.6546 1.65412 1.65365 1.65317 1.65271 1.65226 1.65182 1.65138 1.65096 1.65054 1.65015 1.64976 1.64939 1.64902 1.64868 1.64834 1.64803 1.64772 1.64743 1.64715 1.64689 1.64664 1.64641 1.64619 1.646 1.64581 1.64564 1.64549 1.64535 1.64523 1.64513 1.64503 1.64496 1.6449 1.64486 1.64483 1.64483 1.64483 1.64486 1.64489 1.64495 1.64501 1.64511 1.6452 1.64533 1.64546 1.64561 1.64577 1.64596 1.64615 1.64637 1.6466 1.64685 1.6471 1.64738 1.64767 1.64798 1.64829 1.64863 1.64897 1.64934 1.64971 1.6501 1.6505 1.65091 1.65133 1.65177 1.65222 1.65268 1.65314 1.65361 1.65409 1.65458 1.65505 1.65553 1.65599 1.65643 1.6568 1.65709 1.65722 1.65709 1.65653 1.65528 1.65287 1.6486 1.64132 1.62931 1.60999 1.57988 1.53477 1.47069 1.38554 1.281 1.16329 1.04176 0.925896 0.822702 0.735597 0.664964 0.609278 0.566207 0.533298 0.508347 0.489508 0.475316 0.464626 0.456569 0.45048 0.445865 0.44235 0.43966 0.437584 0.435972 0.434706 0.433706 0.432905 0.432259 0.431733 0.431302 0.430946 0.430653 0.430411 0.430213 0.430052 0.429925 0.429826 0.429755 0.429706 0.42968 0.429672 0.42968 0.429701 0.429731 0.429766 0.429799 0.429826 0.429841 0.429079 0.429073 0.429061 0.429049 0.429039 0.429036 0.429045 0.429068 0.429109 0.429172 0.429257 0.429369 0.42951 0.429685 0.429897 0.430153 0.43046 0.43083 0.431273 0.431812 0.432469 0.433279 0.434286 0.435554 0.437164 0.439232 0.441904 0.445388 0.449954 0.455971 0.463923 0.474463 0.488445 0.506994 0.53155 0.563931 0.60631 0.661125 0.730717 0.816678 0.918778 1.03383 1.15508 1.27318 1.37871 1.46521 1.53068 1.57701 1.60807 1.62807 1.64055 1.64814 1.65261 1.65515 1.65649 1.65711 1.65727 1.65717 1.6569 1.65654 1.65612 1.65567 1.6552 1.65472 1.65424 1.65377 1.65329 1.65284 1.65238 1.65194 1.6515 1.65108 1.65066 1.65027 1.64987 1.6495 1.64913 1.64879 1.64845 1.64813 1.64782 1.64753 1.64725 1.64699 1.64674 1.64651 1.64629 1.64609 1.6459 1.64573 1.64557 1.64544 1.64531 1.64521 1.64511 1.64504 1.64498 1.64494 1.64491 1.64491 1.64491 1.64494 1.64497 1.64503 1.6451 1.64519 1.64529 1.64541 1.64554 1.6457 1.64586 1.64605 1.64625 1.64647 1.64669 1.64695 1.6472 1.64748 1.64777 1.64808 1.6484 1.64874 1.64908 1.64945 1.64982 1.65022 1.65062 1.65103 1.65145 1.6519 1.65234 1.6528 1.65326 1.65374 1.65421 1.6547 1.65517 1.65565 1.6561 1.65653 1.65689 1.65716 1.65726 1.65709 1.65646 1.65509 1.65251 1.64797 1.64028 1.62764 1.60738 1.57597 1.52918 1.46316 1.37611 1.27016 1.15187 1.0307 0.91596 0.814299 0.728815 0.659672 0.605245 0.563185 0.53106 0.506705 0.488312 0.474451 0.464006 0.456128 0.45017 0.445652 0.442207 0.439567 0.437528 0.435941 0.434694 0.433706 0.432913 0.432272 0.431748 0.431317 0.430959 0.430663 0.430417 0.430214 0.430047 0.429913 0.429806 0.429726 0.429668 0.429631 0.42961 0.429606 0.429613 0.429628 0.429648 0.429669 0.429685 0.429694 0.428941 0.428939 0.428936 0.428935 0.428938 0.428949 0.42897 0.429007 0.42906 0.429133 0.429228 0.429349 0.429498 0.42968 0.429898 0.430159 0.430469 0.43084 0.431284 0.431821 0.432472 0.433273 0.434266 0.435514 0.437094 0.439119 0.441733 0.445136 0.449591 0.455455 0.463198 0.473455 0.487052 0.505083 0.528948 0.560417 0.60162 0.654965 0.722812 0.806862 0.907132 1.02081 1.14155 1.26025 1.36739 1.4561 1.52388 1.57223 1.60487 1.626 1.63926 1.64735 1.65216 1.65491 1.65639 1.65709 1.65731 1.65725 1.657 1.65665 1.65624 1.6558 1.65533 1.65486 1.65438 1.65391 1.65343 1.65298 1.65252 1.65208 1.65164 1.65122 1.6508 1.6504 1.65001 1.64964 1.64927 1.64892 1.64858 1.64826 1.64795 1.64766 1.64737 1.64711 1.64686 1.64663 1.6464 1.64621 1.64601 1.64585 1.64568 1.64555 1.64542 1.64532 1.64522 1.64515 1.64509 1.64505 1.64502 1.64501 1.64501 1.64504 1.64508 1.64514 1.6452 1.6453 1.6454 1.64552 1.64566 1.64581 1.64598 1.64617 1.64637 1.64659 1.64682 1.64707 1.64733 1.64761 1.6479 1.64821 1.64853 1.64887 1.64922 1.64959 1.64996 1.65036 1.65076 1.65117 1.6516 1.65204 1.65248 1.65294 1.6534 1.65388 1.65435 1.65483 1.6553 1.65578 1.65622 1.65664 1.65698 1.65723 1.65729 1.65707 1.65635 1.65485 1.65205 1.64718 1.63897 1.62555 1.60415 1.57115 1.52233 1.454 1.36475 1.25721 1.13836 1.01773 0.904375 0.804548 0.720969 0.653562 0.600595 0.559703 0.528481 0.50481 0.48693 0.473451 0.463286 0.455615 0.449809 0.445401 0.442036 0.439454 0.437456 0.4359 0.434673 0.433699 0.432915 0.43228 0.431758 0.431327 0.430968 0.43067 0.430419 0.430211 0.430037 0.429896 0.429782 0.429693 0.429625 0.429577 0.429545 0.429528 0.429522 0.429524 0.429532 0.429541 0.429549 0.429553 0.428809 0.428811 0.428815 0.428824 0.428838 0.428861 0.428894 0.428942 0.429007 0.42909 0.429195 0.429325 0.429482 0.42967 0.429894 0.43016 0.430473 0.430846 0.43129 0.431823 0.432469 0.433259 0.434237 0.435461 0.437008 0.438986 0.441534 0.444846 0.449176 0.454869 0.462379 0.472317 0.485484 0.502935 0.526024 0.55647 0.596349 0.648033 0.713895 0.795749 0.893873 1.00587 1.12589 1.24512 1.354 1.44521 1.51567 1.56641 1.60095 1.62346 1.63766 1.64638 1.65159 1.6546 1.65624 1.65705 1.65734 1.65732 1.6571 1.65677 1.65637 1.65594 1.65547 1.65501 1.65453 1.65406 1.65359 1.65313 1.65268 1.65224 1.6518 1.65138 1.65096 1.65056 1.65017 1.64979 1.64942 1.64908 1.64873 1.64841 1.6481 1.64781 1.64752 1.64726 1.647 1.64677 1.64655 1.64635 1.64615 1.64598 1.64582 1.64569 1.64556 1.64545 1.64535 1.64528 1.64522 1.64518 1.64515 1.64514 1.64515 1.64517 1.64521 1.64527 1.64534 1.64543 1.64553 1.64566 1.64579 1.64595 1.64612 1.64631 1.64651 1.64673 1.64696 1.64722 1.64748 1.64776 1.64805 1.64837 1.64869 1.64903 1.64938 1.64975 1.65012 1.65052 1.65091 1.65133 1.65176 1.6522 1.65264 1.6531 1.65356 1.65403 1.6545 1.65498 1.65545 1.65592 1.65635 1.65676 1.65709 1.6573 1.65732 1.65703 1.6562 1.65453 1.65147 1.64619 1.63735 1.62298 1.60019 1.56528 1.51406 1.44305 1.35131 1.24207 1.12272 1.00284 0.891184 0.793506 0.712118 0.646686 0.595369 0.55579 0.525583 0.502681 0.485376 0.472323 0.462473 0.455033 0.449397 0.445112 0.441837 0.439321 0.43737 0.435847 0.434643 0.433685 0.432911 0.432282 0.431763 0.431333 0.430973 0.430672 0.430417 0.430204 0.430024 0.429876 0.429754 0.429656 0.429579 0.42952 0.429478 0.429449 0.429431 0.429422 0.429418 0.429418 0.429419 0.429419 0.428685 0.42869 0.4287 0.428717 0.428741 0.428774 0.428818 0.428877 0.428951 0.429045 0.429159 0.429297 0.429461 0.429657 0.429886 0.430156 0.430472 0.430847 0.43129 0.43182 0.432458 0.433238 0.434197 0.435396 0.436906 0.438832 0.441308 0.44452 0.448713 0.454218 0.461471 0.471061 0.483755 0.500569 0.522807 0.552127 0.590547 0.640392 0.70404 0.783416 0.879069 0.989061 1.10807 1.2277 1.33838 1.43235 1.50587 1.55941 1.59618 1.62034 1.63568 1.64516 1.65087 1.6542 1.65605 1.65699 1.65735 1.65739 1.6572 1.6569 1.65651 1.65609 1.65563 1.65517 1.6547 1.65423 1.65376 1.65331 1.65285 1.65241 1.65197 1.65155 1.65114 1.65074 1.65034 1.64997 1.6496 1.64925 1.64891 1.64859 1.64827 1.64798 1.64769 1.64743 1.64717 1.64694 1.64672 1.64651 1.64632 1.64615 1.64599 1.64585 1.64572 1.64561 1.64552 1.64544 1.64538 1.64534 1.64531 1.6453 1.64531 1.64533 1.64537 1.64543 1.6455 1.64559 1.6457 1.64582 1.64596 1.64612 1.64629 1.64648 1.64668 1.6469 1.64713 1.64739 1.64765 1.64794 1.64823 1.64854 1.64886 1.64921 1.64956 1.64993 1.6503 1.6507 1.65109 1.65151 1.65193 1.65238 1.65282 1.65328 1.65373 1.65421 1.65467 1.65515 1.65561 1.65607 1.6565 1.65689 1.65719 1.65737 1.65734 1.65696 1.656 1.65413 1.65075 1.64496 1.63536 1.61983 1.59538 1.55822 1.50418 1.43012 1.33565 1.22464 1.10493 0.986092 0.876458 0.781254 0.702337 0.639106 0.589616 0.551485 0.522394 0.500336 0.483663 0.471078 0.461573 0.454388 0.448937 0.444788 0.441612 0.439167 0.437268 0.435781 0.434603 0.433663 0.432901 0.432278 0.431763 0.431335 0.430973 0.430669 0.430411 0.430192 0.430007 0.429852 0.429722 0.429616 0.42953 0.429462 0.429409 0.42937 0.429341 0.429322 0.429309 0.429301 0.429296 0.429293 0.428568 0.428576 0.428591 0.428615 0.428647 0.428689 0.428743 0.428812 0.428895 0.428998 0.42912 0.429266 0.429438 0.429639 0.429873 0.430148 0.430467 0.430842 0.431284 0.43181 0.43244 0.433207 0.434147 0.435318 0.436788 0.438658 0.441056 0.444161 0.448205 0.453507 0.460485 0.469698 0.481883 0.49801 0.519329 0.547434 0.584273 0.632117 0.69334 0.769965 0.862817 0.970437 1.08811 1.20792 1.32038 1.41732 1.49426 1.55101 1.59043 1.61655 1.63326 1.64366 1.64997 1.65369 1.65578 1.65688 1.65735 1.65745 1.65731 1.65703 1.65666 1.65625 1.6558 1.65535 1.65488 1.65442 1.65395 1.6535 1.65305 1.65261 1.65217 1.65175 1.65133 1.65094 1.65054 1.65017 1.6498 1.64945 1.64911 1.64879 1.64847 1.64818 1.64789 1.64763 1.64737 1.64714 1.64691 1.64671 1.64651 1.64634 1.64618 1.64604 1.64591 1.6458 1.6457 1.64563 1.64556 1.64553 1.64549 1.64549 1.64549 1.64552 1.64556 1.64562 1.64569 1.64578 1.64588 1.64601 1.64615 1.64631 1.64648 1.64667 1.64687 1.6471 1.64733 1.64759 1.64785 1.64813 1.64843 1.64874 1.64906 1.64941 1.64976 1.65013 1.6505 1.65089 1.65129 1.65171 1.65213 1.65257 1.65301 1.65347 1.65392 1.65439 1.65486 1.65533 1.65578 1.65623 1.65665 1.65702 1.65729 1.65743 1.65733 1.65685 1.65573 1.65361 1.64984 1.64345 1.63291 1.61599 1.58957 1.54975 1.49249 1.41502 1.31761 1.20485 1.085 0.967538 0.860293 0.76789 0.691715 0.630897 0.583394 0.546832 0.518947 0.4978 0.481807 0.469727 0.460595 0.453683 0.448433 0.444431 0.441362 0.438994 0.43715 0.435703 0.434554 0.433632 0.432883 0.432268 0.431758 0.431331 0.430969 0.430663 0.430401 0.430178 0.429987 0.429825 0.429688 0.429575 0.42948 0.429403 0.429341 0.429292 0.429254 0.429226 0.429205 0.42919 0.42918 0.429174 0.428459 0.428469 0.428489 0.428518 0.428557 0.428608 0.42867 0.428747 0.428839 0.42895 0.42908 0.429233 0.429411 0.429618 0.429857 0.430135 0.430456 0.430832 0.431272 0.431793 0.432415 0.433168 0.434087 0.435227 0.436655 0.438465 0.44078 0.44377 0.447657 0.452744 0.459428 0.468242 0.479886 0.495285 0.515628 0.542439 0.577592 0.623294 0.681899 0.755517 0.84524 0.950101 1.06604 1.18573 1.29987 1.39992 1.48062 1.54102 1.5835 1.61194 1.63029 1.64181 1.64884 1.65304 1.65543 1.65672 1.65732 1.6575 1.65741 1.65717 1.65682 1.65642 1.65599 1.65554 1.65508 1.65462 1.65416 1.65371 1.65326 1.65282 1.65238 1.65197 1.65155 1.65115 1.65076 1.65039 1.65002 1.64967 1.64933 1.64901 1.64869 1.6484 1.64811 1.64784 1.64759 1.64735 1.64712 1.64692 1.64673 1.64655 1.64639 1.64625 1.64612 1.64601 1.64591 1.64584 1.64578 1.64574 1.64571 1.6457 1.6457 1.64573 1.64577 1.64583 1.6459 1.64599 1.6461 1.64623 1.64636 1.64652 1.64669 1.64689 1.64709 1.64732 1.64755 1.6478 1.64807 1.64835 1.64865 1.64896 1.64928 1.64963 1.64998 1.65035 1.65072 1.65111 1.65151 1.65193 1.65235 1.65278 1.65322 1.65368 1.65413 1.65459 1.65505 1.65552 1.65597 1.65641 1.6568 1.65715 1.65739 1.65748 1.6573 1.65669 1.65538 1.65295 1.6487 1.64157 1.62991 1.61134 1.58257 1.53968 1.47876 1.39753 1.29705 1.18266 1.06298 0.947281 0.84281 0.753537 0.680358 0.622144 0.576769 0.54188 0.515277 0.495098 0.479828 0.468283 0.459547 0.452926 0.44789 0.444044 0.441088 0.438802 0.437018 0.435613 0.434494 0.433593 0.432858 0.432252 0.431746 0.431321 0.43096 0.430652 0.430386 0.430159 0.429963 0.429796 0.429652 0.429531 0.429429 0.429344 0.429273 0.429216 0.42917 0.429134 0.429106 0.429085 0.429071 0.429064 0.428357 0.428369 0.428392 0.428427 0.428472 0.428529 0.428599 0.428683 0.428783 0.428901 0.429038 0.429198 0.429382 0.429594 0.429837 0.430118 0.430441 0.430816 0.431254 0.431769 0.432382 0.43312 0.434017 0.435125 0.436507 0.438254 0.440482 0.443351 0.447074 0.451935 0.458311 0.466707 0.477785 0.492421 0.511742 0.537197 0.570579 0.614017 0.669836 0.740212 0.826488 0.928187 1.04195 1.16112 1.27673 1.37992 1.46468 1.52918 1.57518 1.60635 1.62666 1.63951 1.64744 1.65221 1.65497 1.6565 1.65725 1.65753 1.6575 1.6573 1.65698 1.6566 1.65618 1.65574 1.65529 1.65484 1.65438 1.65393 1.65348 1.65305 1.65261 1.6522 1.65179 1.65139 1.651 1.65063 1.65026 1.64991 1.64957 1.64925 1.64893 1.64864 1.64835 1.64809 1.64783 1.64759 1.64737 1.64716 1.64697 1.64679 1.64663 1.64649 1.64636 1.64625 1.64615 1.64608 1.64601 1.64597 1.64594 1.64594 1.64594 1.64597 1.646 1.64607 1.64614 1.64623 1.64634 1.64647 1.6466 1.64676 1.64693 1.64713 1.64733 1.64756 1.64779 1.64805 1.64831 1.6486 1.64889 1.6492 1.64953 1.64987 1.65022 1.65058 1.65096 1.65135 1.65175 1.65216 1.65258 1.65301 1.65345 1.6539 1.65435 1.65481 1.65526 1.65572 1.65616 1.65659 1.65697 1.65728 1.65748 1.65751 1.65722 1.65646 1.65491 1.6521 1.64727 1.63924 1.62623 1.60569 1.57418 1.52774 1.46272 1.37745 1.27385 1.15806 1.03894 0.925456 0.824161 0.738333 0.668384 0.61294 0.569813 0.536682 0.511425 0.492259 0.477745 0.466762 0.45844 0.452124 0.447311 0.443629 0.440792 0.438593 0.436872 0.435512 0.434424 0.433545 0.432825 0.432229 0.431729 0.431307 0.430946 0.430636 0.430369 0.430138 0.429937 0.429764 0.429615 0.429487 0.429377 0.429285 0.429207 0.429143 0.42909 0.429047 0.429013 0.428987 0.428969 0.42896 0.428262 0.428276 0.428302 0.428341 0.428391 0.428454 0.42853 0.428621 0.428728 0.428852 0.428995 0.429161 0.42935 0.429567 0.429814 0.430097 0.430421 0.430796 0.43123 0.431739 0.432341 0.433063 0.433937 0.435012 0.436347 0.438028 0.440164 0.442909 0.44646 0.451087 0.457145 0.465109 0.475602 0.489448 0.507713 0.531765 0.563307 0.604387 0.65728 0.724207 0.806736 0.904867 1.01596 1.13413 1.25086 1.35714 1.44617 1.5152 1.56522 1.59958 1.62222 1.63668 1.64567 1.65115 1.65437 1.65619 1.65713 1.65752 1.65758 1.65743 1.65714 1.65679 1.65638 1.65595 1.65551 1.65506 1.65461 1.65417 1.65372 1.65329 1.65286 1.65245 1.65204 1.65164 1.65125 1.65088 1.65052 1.65017 1.64983 1.64951 1.64919 1.6489 1.64861 1.64835 1.64809 1.64786 1.64763 1.64742 1.64723 1.64706 1.64689 1.64675 1.64662 1.64651 1.64641 1.64634 1.64628 1.64624 1.6462 1.6462 1.6462 1.64623 1.64627 1.64633 1.6464 1.64649 1.6466 1.64673 1.64687 1.64703 1.6472 1.64739 1.64759 1.64782 1.64805 1.64831 1.64857 1.64886 1.64915 1.64947 1.64979 1.65013 1.65047 1.65084 1.65121 1.6516 1.652 1.65241 1.65283 1.65326 1.65369 1.65414 1.65458 1.65504 1.65549 1.65593 1.65636 1.65677 1.65713 1.65741 1.65756 1.6575 1.6571 1.65615 1.6543 1.65103 1.64549 1.63637 1.62174 1.59884 1.56413 1.51364 1.4441 1.35457 1.24794 1.13108 1.01302 0.902236 0.80452 0.722434 0.655919 0.603385 0.5626 0.531295 0.50743 0.489312 0.475581 0.465177 0.457284 0.451284 0.446703 0.44319 0.440478 0.438369 0.436712 0.435399 0.434345 0.43349 0.432785 0.4322 0.431706 0.431288 0.430927 0.430617 0.430347 0.430113 0.429908 0.429731 0.429576 0.429442 0.429326 0.429228 0.429143 0.429073 0.429013 0.428965 0.428925 0.428896 0.428875 0.428864 0.428174 0.428189 0.428218 0.42826 0.428315 0.428383 0.428465 0.428561 0.428673 0.428803 0.428952 0.429123 0.429316 0.429537 0.429787 0.430072 0.430396 0.43077 0.4312 0.431703 0.432293 0.432998 0.433848 0.434887 0.436174 0.437787 0.43983 0.442446 0.445821 0.450209 0.455941 0.463463 0.473358 0.486399 0.503583 0.526199 0.555856 0.594508 0.644366 0.707672 0.786183 0.880349 0.988252 1.10485 1.22224 1.33138 1.42483 1.49876 1.55333 1.59139 1.61677 1.63316 1.64347 1.6498 1.65358 1.65576 1.65693 1.65748 1.65763 1.65754 1.6573 1.65697 1.65659 1.65617 1.65574 1.6553 1.65485 1.65442 1.65398 1.65355 1.65312 1.65271 1.6523 1.65191 1.65153 1.65116 1.65079 1.65045 1.65011 1.64979 1.64947 1.64918 1.6489 1.64863 1.64837 1.64814 1.64791 1.64771 1.64751 1.64734 1.64718 1.64704 1.64691 1.6468 1.6467 1.64663 1.64656 1.64652 1.64649 1.64648 1.64649 1.64652 1.64655 1.64661 1.64669 1.64678 1.64689 1.64701 1.64715 1.64731 1.64748 1.64768 1.64788 1.6481 1.64834 1.64859 1.64886 1.64914 1.64943 1.64975 1.65007 1.65041 1.65075 1.65112 1.65149 1.65187 1.65227 1.65268 1.65309 1.65352 1.65394 1.65439 1.65483 1.65528 1.65572 1.65615 1.65657 1.65696 1.65728 1.65753 1.65761 1.65745 1.6569 1.65571 1.6535 1.64967 1.64325 1.63282 1.61623 1.59056 1.55213 1.49709 1.42263 1.32873 1.21928 1.10183 0.985393 0.877828 0.784085 0.706008 0.6431 0.593583 0.55521 0.525776 0.503335 0.486289 0.473356 0.463546 0.456091 0.450413 0.44607 0.442731 0.440146 0.43813 0.436541 0.435277 0.434257 0.433426 0.432738 0.432164 0.431678 0.431263 0.430904 0.430594 0.430322 0.430085 0.429877 0.429695 0.429536 0.429397 0.429276 0.429172 0.429082 0.429005 0.42894 0.428887 0.428843 0.42881 0.428787 0.428774 0.428092 0.428108 0.428139 0.428185 0.428243 0.428316 0.428402 0.428503 0.42862 0.428755 0.428908 0.429083 0.429281 0.429504 0.429756 0.430043 0.430367 0.430739 0.431165 0.431659 0.432238 0.432926 0.43375 0.434754 0.43599 0.437533 0.439481 0.441967 0.445164 0.449309 0.454711 0.461786 0.471076 0.483302 0.499395 0.520559 0.548305 0.584486 0.631233 0.690783 0.765045 0.854872 0.959052 1.07344 1.19088 1.30253 1.40036 1.47954 1.53917 1.58148 1.61011 1.62881 1.6407 1.64809 1.65256 1.65519 1.65664 1.65737 1.65765 1.65764 1.65745 1.65716 1.6568 1.6564 1.65598 1.65555 1.65511 1.65468 1.65424 1.65382 1.6534 1.65299 1.65259 1.6522 1.65181 1.65145 1.65108 1.65074 1.6504 1.65009 1.64977 1.64948 1.6492 1.64893 1.64868 1.64844 1.64822 1.64801 1.64782 1.64765 1.64748 1.64734 1.64721 1.64711 1.64701 1.64693 1.64687 1.64683 1.6468 1.64679 1.64679 1.64682 1.64686 1.64692 1.64699 1.64709 1.64719 1.64732 1.64746 1.64762 1.64779 1.64798 1.64819 1.64841 1.64864 1.6489 1.64916 1.64944 1.64973 1.65004 1.65036 1.6507 1.65104 1.65141 1.65177 1.65216 1.65255 1.65295 1.65336 1.65379 1.65421 1.65465 1.65508 1.65552 1.65595 1.65638 1.65678 1.65714 1.65743 1.65762 1.65762 1.65735 1.6566 1.65512 1.65246 1.64793 1.64045 1.62842 1.60949 1.58056 1.53784 1.47772 1.39804 1.29979 1.1879 1.07046 0.956287 0.852471 0.763071 0.689233 0.630063 0.583638 0.547719 0.520182 0.499182 0.483219 0.471094 0.461883 0.454872 0.449521 0.445418 0.442257 0.439801 0.43788 0.436359 0.435144 0.43416 0.433355 0.432685 0.432123 0.431644 0.431233 0.430877 0.430567 0.430294 0.430055 0.429844 0.429659 0.429495 0.429352 0.429226 0.429117 0.429022 0.428941 0.428871 0.428814 0.428767 0.42873 0.428705 0.428691 0.428016 0.428033 0.428066 0.428114 0.428176 0.428252 0.428342 0.428447 0.428568 0.428707 0.428865 0.429043 0.429243 0.429469 0.429723 0.43001 0.430334 0.430703 0.431124 0.43161 0.432177 0.432846 0.433644 0.434611 0.435796 0.43727 0.439121 0.441475 0.444493 0.448394 0.453465 0.460092 0.468778 0.480189 0.49519 0.5149 0.54073 0.574425 0.61802 0.673722 0.743548 0.828701 0.928637 1.04013 1.1569 1.2705 1.37254 1.45717 1.52236 1.56951 1.60195 1.62342 1.63723 1.6459 1.65123 1.65441 1.65623 1.65719 1.65761 1.65771 1.65758 1.65734 1.657 1.65663 1.65622 1.6558 1.65537 1.65495 1.65452 1.6541 1.65369 1.65328 1.65288 1.6525 1.65212 1.65175 1.65139 1.65105 1.65072 1.6504 1.65009 1.6498 1.64952 1.64926 1.649 1.64877 1.64854 1.64834 1.64815 1.64797 1.64781 1.64767 1.64754 1.64743 1.64734 1.64726 1.6472 1.64716 1.64713 1.64712 1.64712 1.64715 1.64719 1.64725 1.64732 1.64742 1.64752 1.64765 1.64779 1.64795 1.64812 1.64831 1.64851 1.64873 1.64897 1.64922 1.64948 1.64976 1.65005 1.65036 1.65068 1.65101 1.65135 1.65171 1.65208 1.65246 1.65284 1.65325 1.65365 1.65407 1.65449 1.65492 1.65535 1.65578 1.6562 1.65661 1.65699 1.65732 1.65757 1.65769 1.65759 1.65716 1.65618 1.65433 1.65111 1.64572 1.63693 1.62296 1.60124 1.56847 1.52089 1.45521 1.3701 1.26768 1.15391 1.03721 0.925979 0.826429 0.741702 0.672287 0.616946 0.573654 0.540205 0.514569 0.495012 0.480132 0.468815 0.460204 0.453637 0.448615 0.444754 0.44177 0.439445 0.437619 0.436168 0.435003 0.434056 0.433276 0.432624 0.432075 0.431604 0.431199 0.430845 0.430536 0.430263 0.430022 0.429809 0.429621 0.429454 0.429307 0.429177 0.429064 0.428965 0.42888 0.428806 0.428745 0.428695 0.428656 0.428629 0.428614 0.427946 0.427964 0.427999 0.428048 0.428113 0.428191 0.428285 0.428394 0.428518 0.42866 0.428821 0.429002 0.4292