# vtk DataFile Version 3.0
Immiscible displacement
ASCII
DATASET RECTILINEAR_GRID
DIMENSIONS 400 100 1
X_COORDINATES 400 double
1 2 3 4 5 6 7 8 9 10 11 12 13 14 15 16 17 18 19 20 21 22 23 24 25 26 27 28 29 30 31 32 33 34 35 36 37 38 39 40 41 42 43 44 45 46 47 48 49 50 51 52 53 54 55 56 57 58 59 60 61 62 63 64 65 66 67 68 69 70 71 72 73 74 75 76 77 78 79 80 81 82 83 84 85 86 87 88 89 90 91 92 93 94 95 96 97 98 99 100 101 102 103 104 105 106 107 108 109 110 111 112 113 114 115 116 117 118 119 120 121 122 123 124 125 126 127 128 129 130 131 132 133 134 135 136 137 138 139 140 141 142 143 144 145 146 147 148 149 150 151 152 153 154 155 156 157 158 159 160 161 162 163 164 165 166 167 168 169 170 171 172 173 174 175 176 177 178 179 180 181 182 183 184 185 186 187 188 189 190 191 192 193 194 195 196 197 198 199 200 201 202 203 204 205 206 207 208 209 210 211 212 213 214 215 216 217 218 219 220 221 222 223 224 225 226 227 228 229 230 231 232 233 234 235 236 237 238 239 240 241 242 243 244 245 246 247 248 249 250 251 252 253 254 255 256 257 258 259 260 261 262 263 264 265 266 267 268 269 270 271 272 273 274 275 276 277 278 279 280 281 282 283 284 285 286 287 288 289 290 291 292 293 294 295 296 297 298 299 300 301 302 303 304 305 306 307 308 309 310 311 312 313 314 315 316 317 318 319 320 321 322 323 324 325 326 327 328 329 330 331 332 333 334 335 336 337 338 339 340 341 342 343 344 345 346 347 348 349 350 351 352 353 354 355 356 357 358 359 360 361 362 363 364 365 366 367 368 369 370 371 372 373 374 375 376 377 378 379 380 381 382 383 384 385 386 387 388 389 390 391 392 393 394 395 396 397 398 399 400 
Y_COORDINATES 100 double
1 2 3 4 5 6 7 8 9 10 11 12 13 14 15 16 17 18 19 20 21 22 23 24 25 26 27 28 29 30 31 32 33 34 35 36 37 38 39 40 41 42 43 44 45 46 47 48 49 50 51 52 53 54 55 56 57 58 59 60 61 62 63 64 65 66 67 68 69 70 71 72 73 74 75 76 77 78 79 80 81 82 83 84 85 86 87 88 89 90 91 92 93 94 95 96 97 98 99 100 
Z_COORDINATES 1 double
0
POINT_DATA 40000
SCALARS rho double 1
LOOKUP_TABLE default
0.475665 0.475666 0.475668 0.47567 0.475672 0.475674 0.475676 0.475678 0.47568 0.475682 0.475684 0.475686 0.475688 0.475689 0.475691 0.475693 0.475694 0.475696 0.475698 0.4757 0.475701 0.475703 0.475705 0.475707 0.475708 0.47571 0.475712 0.475714 0.475716 0.475718 0.47572 0.475722 0.475724 0.475726 0.475729 0.475731 0.475733 0.475735 0.475738 0.47574 0.475742 0.475745 0.475747 0.47575 0.475752 0.475755 0.475757 0.47576 0.475762 0.475765 0.475768 0.47577 0.475773 0.475776 0.475778 0.475781 0.475784 0.475787 0.475789 0.475792 0.475795 0.475798 0.475801 0.475803 0.475806 0.475809 0.475812 0.475815 0.475818 0.475821 0.475824 0.475827 0.47583 0.475833 0.475836 0.475839 0.475842 0.475845 0.475849 0.475852 0.475855 0.475858 0.475862 0.475865 0.475868 0.475872 0.475875 0.475878 0.475882 0.475886 0.475889 0.475893 0.475896 0.4759 0.475904 0.475908 0.475912 0.475916 0.47592 0.475924 0.475928 0.475933 0.475937 0.475942 0.475946 0.475951 0.475956 0.475961 0.475966 0.475972 0.475977 0.475983 0.475989 0.475995 0.476002 0.476009 0.476016 0.476025 0.476033 0.476043 0.476054 0.476067 0.476082 0.476099 0.47612 0.476146 0.476177 0.476217 0.476266 0.47633 0.476412 0.476518 0.476656 0.476837 0.477074 0.477386 0.477799 0.478344 0.479066 0.480023 0.481294 0.482983 0.485228 0.488217 0.492196 0.497495 0.504555 0.51396 0.526481 0.543133 0.565234 0.594458 0.632868 0.682861 0.746946 0.827221 0.924455 1.03687 1.15913 1.28255 1.39702 1.49428 1.57033 1.6257 1.6638 1.68901 1.70527 1.71559 1.7221 1.72619 1.72877 1.7304 1.73143 1.73209 1.73251 1.73278 1.73296 1.73308 1.73315 1.73321 1.73324 1.73326 1.73328 1.73329 1.7333 1.73331 1.73331 1.73332 1.73332 1.73332 1.73332 1.73333 1.73333 1.73333 1.73333 1.73333 1.73333 1.73333 1.73333 1.73333 1.73333 1.73333 1.73333 1.73333 1.73333 1.73333 1.73333 1.73333 1.73332 1.73332 1.73332 1.73332 1.73331 1.73331 1.7333 1.73329 1.73328 1.73327 1.73324 1.73321 1.73316 1.73308 1.73297 1.73279 1.73252 1.7321 1.73145 1.73042 1.7288 1.72624 1.72218 1.71572 1.70547 1.68933 1.66429 1.62641 1.57135 1.49564 1.39869 1.28443 1.16109 1.03873 0.926116 0.828625 0.748088 0.683766 0.633573 0.595002 0.565651 0.543454 0.526728 0.514151 0.504704 0.497612 0.492289 0.488292 0.48529 0.483034 0.481337 0.480061 0.479099 0.478373 0.477826 0.477411 0.477097 0.476859 0.476677 0.476538 0.476431 0.476348 0.476284 0.476234 0.476194 0.476162 0.476136 0.476115 0.476097 0.476082 0.476069 0.476058 0.476048 0.476039 0.47603 0.476023 0.476016 0.476009 0.476002 0.475996 0.475991 0.475985 0.475979 0.475974 0.475969 0.475964 0.475959 0.475955 0.47595 0.475946 0.475941 0.475937 0.475933 0.475929 0.475925 0.475921 0.475917 0.475914 0.47591 0.475906 0.475903 0.475899 0.475896 0.475893 0.475889 0.475886 0.475883 0.47588 0.475877 0.475874 0.47587 0.475868 0.475864 0.475862 0.475859 0.475856 0.475853 0.47585 0.475847 0.475844 0.475842 0.475839 0.475836 0.475834 0.475831 0.475828 0.475826 0.475823 0.47582 0.475818 0.475815 0.475813 0.47581 0.475808 0.475805 0.475803 0.4758 0.475798 0.475795 0.475793 0.47579 0.475788 0.475786 0.475783 0.475781 0.475779 0.475776 0.475774 0.475772 0.47577 0.475768 0.475766 0.475763 0.475761 0.475759 0.475757 0.475755 0.475753 0.475751 0.47575 0.475748 0.475746 0.475744 0.475742 0.475741 0.475739 0.475737 0.475736 0.475734 0.475732 0.475731 0.475729 0.475728 0.475726 0.475725 0.475723 0.475722 0.47572 0.475719 0.475717 0.475716 0.475714 0.475712 0.475711 0.475709 0.475707 0.475705 0.475703 0.475701 0.4757 0.475698 0.475697 0.46611 0.466111 0.466113 0.466115 0.466117 0.466119 0.466121 0.466123 0.466124 0.466126 0.466128 0.46613 0.466132 0.466133 0.466135 0.466137 0.466138 0.46614 0.466141 0.466143 0.466145 0.466147 0.466148 0.46615 0.466152 0.466154 0.466155 0.466157 0.466159 0.466161 0.466163 0.466165 0.466167 0.466169 0.466171 0.466173 0.466176 0.466178 0.46618 0.466182 0.466185 0.466187 0.466189 0.466192 0.466194 0.466197 0.466199 0.466202 0.466204 0.466207 0.466209 0.466212 0.466214 0.466217 0.46622 0.466222 0.466225 0.466228 0.46623 0.466233 0.466236 0.466238 0.466241 0.466244 0.466247 0.46625 0.466252 0.466255 0.466258 0.466261 0.466264 0.466267 0.46627 0.466273 0.466276 0.466279 0.466282 0.466285 0.466288 0.466291 0.466294 0.466297 0.4663 0.466304 0.466307 0.46631 0.466313 0.466317 0.46632 0.466324 0.466327 0.466331 0.466334 0.466338 0.466342 0.466346 0.466349 0.466353 0.466357 0.466361 0.466365 0.46637 0.466374 0.466379 0.466383 0.466388 0.466392 0.466397 0.466402 0.466408 0.466413 0.466419 0.466424 0.466431 0.466437 0.466444 0.466451 0.466459 0.466468 0.466477 0.466488 0.4665 0.466514 0.466531 0.466551 0.466576 0.466606 0.466645 0.466693 0.466754 0.466833 0.466935 0.467068 0.467242 0.467471 0.467772 0.468168 0.468693 0.469387 0.470308 0.47153 0.473154 0.475312 0.478182 0.482002 0.487088 0.493859 0.502874 0.514867 0.530806 0.551942 0.579869 0.616547 0.664265 0.725434 0.802128 0.89524 1.00336 1.12178 1.24253 1.356 1.4539 1.53174 1.58935 1.62963 1.65664 1.67427 1.68558 1.69277 1.69733 1.70022 1.70205 1.70322 1.70397 1.70446 1.70477 1.70498 1.70511 1.7052 1.70526 1.7053 1.70533 1.70535 1.70536 1.70537 1.70538 1.70539 1.70539 1.70539 1.7054 1.7054 1.7054 1.7054 1.7054 1.7054 1.7054 1.70541 1.70541 1.70541 1.70541 1.70541 1.70541 1.70541 1.70541 1.7054 1.7054 1.7054 1.7054 1.7054 1.7054 1.70539 1.70539 1.70539 1.70538 1.70537 1.70537 1.70535 1.70533 1.7053 1.70526 1.7052 1.70512 1.70498 1.70478 1.70447 1.70399 1.70324 1.70208 1.70025 1.69738 1.69286 1.68572 1.67449 1.65698 1.63014 1.59011 1.53279 1.45528 1.35766 1.24438 1.12368 1.00516 0.896833 0.80347 0.726525 0.665128 0.61722 0.580388 0.552341 0.531113 0.515104 0.503057 0.494002 0.487201 0.482092 0.478255 0.475371 0.473203 0.471572 0.470345 0.469419 0.468722 0.468194 0.467796 0.467493 0.467263 0.467088 0.466954 0.466851 0.466772 0.46671 0.466661 0.466623 0.466592 0.466567 0.466547 0.466529 0.466515 0.466502 0.466491 0.466481 0.466473 0.466465 0.466457 0.46645 0.466444 0.466437 0.466432 0.466426 0.46642 0.466415 0.46641 0.466405 0.4664 0.466396 0.466391 0.466387 0.466382 0.466378 0.466374 0.46637 0.466366 0.466362 0.466358 0.466355 0.466351 0.466348 0.466344 0.466341 0.466337 0.466334 0.466331 0.466327 0.466324 0.466321 0.466318 0.466315 0.466312 0.466309 0.466306 0.466303 0.4663 0.466298 0.466295 0.466292 0.466289 0.466286 0.466284 0.466281 0.466278 0.466276 0.466273 0.466271 0.466268 0.466265 0.466263 0.46626 0.466258 0.466255 0.466253 0.46625 0.466248 0.466246 0.466243 0.466241 0.466238 0.466236 0.466234 0.466231 0.466229 0.466227 0.466224 0.466222 0.46622 0.466218 0.466216 0.466213 0.466211 0.466209 0.466207 0.466205 0.466203 0.466201 0.466199 0.466197 0.466195 0.466193 0.466192 0.46619 0.466188 0.466186 0.466185 0.466183 0.466181 0.46618 0.466178 0.466177 0.466175 0.466173 0.466172 0.466171 0.466169 0.466168 0.466166 0.466165 0.466163 0.466162 0.46616 0.466159 0.466157 0.466156 0.466154 0.466152 0.466151 0.466149 0.466147 0.466145 0.466144 0.466142 0.466141 0.458901 0.458902 0.458903 0.458904 0.458906 0.458908 0.45891 0.458912 0.458913 0.458915 0.458917 0.458918 0.45892 0.458922 0.458923 0.458925 0.458926 0.458928 0.45893 0.458931 0.458933 0.458935 0.458936 0.458938 0.45894 0.458941 0.458943 0.458945 0.458947 0.458949 0.458951 0.458953 0.458955 0.458957 0.458959 0.458961 0.458963 0.458965 0.458967 0.458969 0.458972 0.458974 0.458976 0.458978 0.458981 0.458983 0.458985 0.458988 0.45899 0.458993 0.458995 0.458998 0.459 0.459003 0.459005 0.459008 0.45901 0.459013 0.459016 0.459018 0.459021 0.459024 0.459026 0.459029 0.459032 0.459035 0.459037 0.45904 0.459043 0.459046 0.459048 0.459051 0.459054 0.459057 0.45906 0.459063 0.459066 0.459069 0.459072 0.459075 0.459078 0.459081 0.459084 0.459087 0.45909 0.459093 0.459097 0.4591 0.459103 0.459106 0.45911 0.459113 0.459117 0.45912 0.459124 0.459128 0.459131 0.459135 0.459139 0.459143 0.459147 0.459151 0.459155 0.45916 0.459164 0.459169 0.459173 0.459178 0.459183 0.459188 0.459193 0.459199 0.459204 0.45921 0.459216 0.459223 0.45923 0.459238 0.459246 0.459255 0.459266 0.459278 0.459291 0.459308 0.459327 0.459351 0.45938 0.459416 0.459462 0.459521 0.459596 0.459694 0.459821 0.459987 0.460205 0.460492 0.46087 0.46137 0.462031 0.462907 0.464069 0.465612 0.467661 0.470385 0.474007 0.478825 0.485232 0.493751 0.505072 0.520096 0.53999 0.566239 0.600672 0.645436 0.702831 0.774919 0.862811 0.965654 1.07966 1.1979 1.31145 1.41194 1.49404 1.55647 1.60123 1.63192 1.65233 1.66564 1.67422 1.67973 1.68325 1.68551 1.68697 1.68791 1.68852 1.68892 1.68918 1.68935 1.68947 1.68955 1.6896 1.68964 1.68966 1.68968 1.68969 1.6897 1.68971 1.68972 1.68972 1.68972 1.68973 1.68973 1.68973 1.68973 1.68973 1.68973 1.68974 1.68974 1.68974 1.68974 1.68974 1.68974 1.68974 1.68974 1.68973 1.68973 1.68973 1.68973 1.68973 1.68973 1.68972 1.68972 1.68971 1.68971 1.6897 1.68968 1.68967 1.68964 1.6896 1.68955 1.68947 1.68936 1.68919 1.68893 1.68853 1.68792 1.68699 1.68555 1.6833 1.6798 1.67433 1.66581 1.65259 1.63231 1.6018 1.5573 1.49516 1.41337 1.31314 1.19974 1.08151 0.967371 0.864319 0.776183 0.703854 0.646246 0.601303 0.566727 0.540366 0.520385 0.505295 0.493925 0.485367 0.478932 0.474093 0.470454 0.467718 0.465659 0.464109 0.462942 0.462062 0.461397 0.460895 0.460515 0.460227 0.460008 0.45984 0.459713 0.459614 0.459538 0.459479 0.459432 0.459396 0.459366 0.459342 0.459322 0.459306 0.459292 0.45928 0.459269 0.45926 0.459251 0.459243 0.459236 0.459229 0.459223 0.459217 0.459211 0.459206 0.4592 0.459195 0.45919 0.459186 0.459181 0.459176 0.459172 0.459168 0.459164 0.459159 0.459155 0.459151 0.459148 0.459144 0.45914 0.459137 0.459133 0.45913 0.459126 0.459123 0.45912 0.459116 0.459113 0.45911 0.459107 0.459104 0.459101 0.459098 0.459095 0.459092 0.459089 0.459087 0.459084 0.459081 0.459078 0.459076 0.459073 0.45907 0.459068 0.459065 0.459063 0.45906 0.459057 0.459055 0.459052 0.45905 0.459047 0.459045 0.459043 0.45904 0.459038 0.459035 0.459033 0.459031 0.459028 0.459026 0.459024 0.459021 0.459019 0.459017 0.459015 0.459012 0.45901 0.459008 0.459006 0.459004 0.459002 0.459 0.458998 0.458995 0.458993 0.458991 0.45899 0.458988 0.458986 0.458984 0.458982 0.45898 0.458978 0.458977 0.458975 0.458973 0.458972 0.45897 0.458968 0.458967 0.458965 0.458964 0.458962 0.458961 0.458959 0.458958 0.458957 0.458955 0.458954 0.458952 0.458951 0.45895 0.458948 0.458947 0.458945 0.458944 0.458942 0.458941 0.458939 0.458937 0.458936 0.458934 0.458933 0.458932 0.458931 0.453466 0.453467 0.453468 0.453469 0.45347 0.453472 0.453474 0.453475 0.453477 0.453479 0.45348 0.453482 0.453483 0.453485 0.453486 0.453488 0.453489 0.453491 0.453493 0.453494 0.453496 0.453497 0.453499 0.453501 0.453502 0.453504 0.453506 0.453507 0.453509 0.453511 0.453513 0.453515 0.453517 0.453519 0.453521 0.453523 0.453525 0.453527 0.453529 0.453531 0.453533 0.453535 0.453537 0.45354 0.453542 0.453544 0.453547 0.453549 0.453551 0.453554 0.453556 0.453558 0.453561 0.453563 0.453566 0.453568 0.453571 0.453573 0.453576 0.453578 0.453581 0.453584 0.453586 0.453589 0.453591 0.453594 0.453597 0.453599 0.453602 0.453605 0.453608 0.45361 0.453613 0.453616 0.453619 0.453622 0.453624 0.453627 0.45363 0.453633 0.453636 0.453639 0.453642 0.453645 0.453648 0.453651 0.453654 0.453658 0.453661 0.453664 0.453667 0.453671 0.453674 0.453678 0.453681 0.453685 0.453688 0.453692 0.453696 0.4537 0.453704 0.453708 0.453712 0.453716 0.45372 0.453725 0.453729 0.453734 0.453739 0.453744 0.453749 0.453754 0.453759 0.453765 0.453771 0.453778 0.453784 0.453792 0.4538 0.453809 0.453819 0.45383 0.453843 0.453859 0.453877 0.4539 0.453928 0.453963 0.454006 0.454062 0.454134 0.454226 0.454347 0.454504 0.45471 0.454981 0.455339 0.45581 0.456434 0.45726 0.458355 0.459807 0.461733 0.464292 0.467689 0.472201 0.478193 0.486148 0.4967 0.510678 0.529151 0.55348 0.585347 0.626737 0.679821 0.746649 0.828562 0.925323 1.03419 1.14944 1.26307 1.36676 1.4543 1.52309 1.57392 1.60973 1.6341 1.65029 1.66091 1.66781 1.67228 1.67518 1.67706 1.67829 1.67909 1.67962 1.67997 1.68021 1.68036 1.68047 1.68054 1.68059 1.68063 1.68065 1.68067 1.68068 1.68069 1.6807 1.68071 1.68071 1.68071 1.68072 1.68072 1.68072 1.68072 1.68072 1.68072 1.68072 1.68073 1.68073 1.68073 1.68073 1.68072 1.68072 1.68072 1.68072 1.68072 1.68072 1.68072 1.68071 1.68071 1.6807 1.68069 1.68069 1.68067 1.68065 1.68063 1.6806 1.68055 1.68047 1.68037 1.68021 1.67998 1.67963 1.67911 1.67831 1.67709 1.67522 1.67234 1.6679 1.66104 1.6505 1.63441 1.61019 1.57459 1.52401 1.45552 1.36826 1.26478 1.15125 1.03596 0.926948 0.829972 0.747823 0.680768 0.627485 0.585931 0.553933 0.5295 0.510947 0.496909 0.486311 0.47832 0.472302 0.467769 0.464357 0.461787 0.459852 0.458393 0.457294 0.456464 0.455837 0.455363 0.455004 0.454731 0.454524 0.454365 0.454244 0.454151 0.454079 0.454022 0.453978 0.453943 0.453915 0.453892 0.453873 0.453857 0.453844 0.453832 0.453822 0.453813 0.453805 0.453797 0.45379 0.453784 0.453778 0.453772 0.453766 0.453761 0.453756 0.453751 0.453746 0.453741 0.453737 0.453732 0.453728 0.453724 0.45372 0.453716 0.453712 0.453708 0.453704 0.4537 0.453697 0.453693 0.45369 0.453687 0.453683 0.45368 0.453677 0.453674 0.453671 0.453668 0.453665 0.453662 0.453659 0.453656 0.453653 0.45365 0.453647 0.453645 0.453642 0.453639 0.453637 0.453634 0.453631 0.453629 0.453626 0.453624 0.453621 0.453619 0.453616 0.453614 0.453612 0.453609 0.453607 0.453604 0.453602 0.4536 0.453597 0.453595 0.453593 0.45359 0.453588 0.453586 0.453584 0.453581 0.453579 0.453577 0.453575 0.453573 0.453571 0.453569 0.453566 0.453564 0.453562 0.45356 0.453558 0.453556 0.453555 0.453553 0.453551 0.453549 0.453547 0.453545 0.453543 0.453542 0.45354 0.453538 0.453537 0.453535 0.453533 0.453532 0.45353 0.453529 0.453527 0.453526 0.453524 0.453523 0.453522 0.45352 0.453519 0.453517 0.453516 0.453515 0.453513 0.453512 0.453511 0.453509 0.453508 0.453506 0.453505 0.453504 0.453502 0.453501 0.453499 0.453498 0.453497 0.453496 0.453495 0.449372 0.449372 0.449373 0.449374 0.449375 0.449377 0.449378 0.44938 0.449381 0.449383 0.449384 0.449386 0.449387 0.449389 0.44939 0.449392 0.449393 0.449395 0.449396 0.449398 0.449399 0.449401 0.449402 0.449404 0.449405 0.449407 0.449409 0.449411 0.449412 0.449414 0.449416 0.449418 0.44942 0.449421 0.449423 0.449425 0.449427 0.449429 0.449431 0.449433 0.449435 0.449438 0.44944 0.449442 0.449444 0.449446 0.449449 0.449451 0.449453 0.449455 0.449458 0.44946 0.449462 0.449465 0.449467 0.44947 0.449472 0.449474 0.449477 0.449479 0.449482 0.449484 0.449487 0.44949 0.449492 0.449495 0.449497 0.4495 0.449502 0.449505 0.449508 0.44951 0.449513 0.449516 0.449519 0.449521 0.449524 0.449527 0.44953 0.449533 0.449535 0.449538 0.449541 0.449544 0.449547 0.44955 0.449553 0.449556 0.44956 0.449563 0.449566 0.449569 0.449573 0.449576 0.449579 0.449583 0.449586 0.44959 0.449594 0.449598 0.449601 0.449605 0.449609 0.449613 0.449618 0.449622 0.449626 0.449631 0.449635 0.44964 0.449645 0.44965 0.449656 0.449661 0.449667 0.449673 0.44968 0.449687 0.449695 0.449704 0.449713 0.449724 0.449737 0.449752 0.449769 0.449791 0.449817 0.44985 0.449891 0.449944 0.450012 0.450099 0.450212 0.45036 0.450554 0.450809 0.451144 0.451586 0.45217 0.452942 0.453965 0.455319 0.457115 0.459495 0.462651 0.466836 0.472383 0.479732 0.48946 0.502318 0.519272 0.541554 0.570687 0.608488 0.656984 0.718187 0.793632 0.883665 0.986568 1.09794 1.21089 1.31744 1.4107 1.48668 1.54477 1.58693 1.61637 1.63636 1.64969 1.65849 1.66427 1.66805 1.67053 1.67216 1.67324 1.67395 1.67443 1.67475 1.67497 1.67511 1.67522 1.67529 1.67534 1.67537 1.6754 1.67541 1.67543 1.67544 1.67545 1.67545 1.67546 1.67546 1.67546 1.67547 1.67547 1.67547 1.67547 1.67547 1.67547 1.67547 1.67547 1.67547 1.67547 1.67547 1.67547 1.67547 1.67546 1.67546 1.67546 1.67545 1.67545 1.67544 1.67543 1.67542 1.6754 1.67537 1.67534 1.67529 1.67522 1.67512 1.67497 1.67476 1.67444 1.67397 1.67326 1.67219 1.67057 1.6681 1.66434 1.6586 1.64986 1.63661 1.61675 1.58748 1.54554 1.48772 1.41202 1.31901 1.21262 1.09971 0.988259 0.885186 0.794935 0.719263 0.65785 0.609172 0.571221 0.541969 0.519593 0.502566 0.489653 0.479883 0.472501 0.46693 0.462726 0.459556 0.457166 0.455362 0.454001 0.452974 0.452198 0.451611 0.451167 0.45083 0.450574 0.450379 0.45023 0.450116 0.450028 0.44996 0.449907 0.449865 0.449832 0.449805 0.449783 0.449765 0.44975 0.449737 0.449726 0.449716 0.449708 0.4497 0.449692 0.449686 0.449679 0.449673 0.449668 0.449662 0.449657 0.449652 0.449647 0.449642 0.449638 0.449633 0.449629 0.449625 0.449621 0.449617 0.449613 0.449609 0.449605 0.449602 0.449598 0.449595 0.449591 0.449588 0.449585 0.449581 0.449578 0.449575 0.449572 0.449569 0.449566 0.449563 0.44956 0.449558 0.449555 0.449552 0.449549 0.449547 0.449544 0.449541 0.449539 0.449536 0.449533 0.449531 0.449528 0.449526 0.449524 0.449521 0.449519 0.449516 0.449514 0.449512 0.449509 0.449507 0.449505 0.449502 0.4495 0.449498 0.449495 0.449493 0.449491 0.449489 0.449487 0.449485 0.449482 0.44948 0.449478 0.449476 0.449474 0.449472 0.44947 0.449468 0.449466 0.449464 0.449462 0.44946 0.449458 0.449456 0.449454 0.449453 0.449451 0.449449 0.449447 0.449446 0.449444 0.449442 0.449441 0.449439 0.449437 0.449436 0.449434 0.449433 0.449431 0.44943 0.449429 0.449427 0.449426 0.449424 0.449423 0.449422 0.44942 0.449419 0.449418 0.449417 0.449415 0.449414 0.449413 0.449411 0.44941 0.449409 0.449407 0.449406 0.449405 0.449403 0.449402 0.449401 0.4494 0.4494 0.446289 0.446289 0.44629 0.446291 0.446292 0.446293 0.446294 0.446296 0.446297 0.446298 0.4463 0.446301 0.446303 0.446304 0.446306 0.446307 0.446308 0.44631 0.446311 0.446313 0.446314 0.446316 0.446317 0.446319 0.44632 0.446322 0.446324 0.446325 0.446327 0.446329 0.44633 0.446332 0.446334 0.446336 0.446338 0.44634 0.446341 0.446343 0.446345 0.446347 0.446349 0.446351 0.446354 0.446356 0.446358 0.44636 0.446362 0.446364 0.446367 0.446369 0.446371 0.446373 0.446376 0.446378 0.44638 0.446383 0.446385 0.446387 0.44639 0.446392 0.446395 0.446397 0.446399 0.446402 0.446404 0.446407 0.446409 0.446412 0.446415 0.446417 0.44642 0.446422 0.446425 0.446428 0.44643 0.446433 0.446436 0.446438 0.446441 0.446444 0.446447 0.44645 0.446452 0.446455 0.446458 0.446461 0.446464 0.446467 0.44647 0.446473 0.446477 0.44648 0.446483 0.446486 0.44649 0.446493 0.446497 0.4465 0.446504 0.446507 0.446511 0.446515 0.446519 0.446523 0.446527 0.446531 0.446535 0.44654 0.446544 0.446549 0.446554 0.446559 0.446564 0.44657 0.446575 0.446581 0.446588 0.446595 0.446602 0.446611 0.44662 0.44663 0.446642 0.446656 0.446673 0.446694 0.446719 0.44675 0.446789 0.446838 0.446902 0.446984 0.44709 0.447228 0.447409 0.447647 0.447959 0.44837 0.448913 0.44963 0.450578 0.451832 0.453492 0.455688 0.458595 0.462442 0.46753 0.474256 0.483138 0.494848 0.510251 0.530446 0.5568 0.590956 0.634783 0.690224 0.758947 0.841778 0.937933 1.04432 1.15533 1.26369 1.36217 1.44554 1.51168 1.5613 1.59694 1.62172 1.63857 1.64987 1.65738 1.66236 1.66566 1.66785 1.6693 1.67028 1.67093 1.67137 1.67167 1.67188 1.67202 1.67212 1.67219 1.67224 1.67228 1.6723 1.67232 1.67234 1.67235 1.67236 1.67236 1.67237 1.67237 1.67238 1.67238 1.67238 1.67238 1.67238 1.67238 1.67238 1.67238 1.67238 1.67238 1.67238 1.67238 1.67238 1.67237 1.67237 1.67237 1.67236 1.67235 1.67234 1.67233 1.67231 1.67228 1.67225 1.6722 1.67213 1.67203 1.67189 1.67168 1.67138 1.67094 1.67029 1.66933 1.66788 1.6657 1.66243 1.65748 1.65001 1.63878 1.62203 1.5974 1.56195 1.51257 1.4467 1.36359 1.26531 1.15706 1.04603 0.939527 0.843184 0.760138 0.691201 0.635566 0.591574 0.557283 0.530822 0.510542 0.495074 0.483315 0.474395 0.467639 0.462529 0.458665 0.455746 0.453539 0.451873 0.450613 0.449661 0.44894 0.448395 0.447981 0.447667 0.447428 0.447246 0.447107 0.447 0.446918 0.446854 0.446804 0.446764 0.446733 0.446708 0.446687 0.44667 0.446655 0.446643 0.446633 0.446623 0.446615 0.446607 0.4466 0.446593 0.446587 0.446581 0.446576 0.446571 0.446565 0.446561 0.446556 0.446551 0.446547 0.446542 0.446538 0.446534 0.44653 0.446526 0.446522 0.446519 0.446515 0.446512 0.446508 0.446505 0.446501 0.446498 0.446495 0.446492 0.446489 0.446486 0.446482 0.44648 0.446477 0.446474 0.446471 0.446468 0.446465 0.446463 0.44646 0.446458 0.446455 0.446452 0.44645 0.446447 0.446445 0.446442 0.44644 0.446437 0.446435 0.446433 0.44643 0.446428 0.446426 0.446423 0.446421 0.446419 0.446417 0.446414 0.446412 0.44641 0.446408 0.446406 0.446404 0.446401 0.446399 0.446397 0.446395 0.446393 0.446391 0.446389 0.446387 0.446385 0.446383 0.446381 0.446379 0.446377 0.446375 0.446374 0.446372 0.44637 0.446368 0.446366 0.446365 0.446363 0.446361 0.446359 0.446358 0.446356 0.446355 0.446353 0.446352 0.44635 0.446349 0.446347 0.446346 0.446344 0.446343 0.446342 0.44634 0.446339 0.446338 0.446336 0.446335 0.446334 0.446333 0.446331 0.44633 0.446329 0.446328 0.446326 0.446325 0.446324 0.446323 0.446321 0.44632 0.446319 0.446318 0.446317 0.446317 0.446317 0.443968 0.443969 0.443969 0.44397 0.443971 0.443972 0.443973 0.443974 0.443975 0.443977 0.443978 0.443979 0.443981 0.443982 0.443983 0.443985 0.443986 0.443988 0.443989 0.44399 0.443992 0.443993 0.443995 0.443996 0.443998 0.443999 0.444001 0.444003 0.444004 0.444006 0.444008 0.444009 0.444011 0.444013 0.444015 0.444016 0.444018 0.44402 0.444022 0.444024 0.444026 0.444028 0.44403 0.444032 0.444034 0.444036 0.444038 0.444041 0.444043 0.444045 0.444047 0.444049 0.444051 0.444054 0.444056 0.444058 0.444061 0.444063 0.444065 0.444068 0.44407 0.444072 0.444075 0.444077 0.44408 0.444082 0.444084 0.444087 0.444089 0.444092 0.444094 0.444097 0.4441 0.444102 0.444105 0.444107 0.44411 0.444113 0.444115 0.444118 0.444121 0.444124 0.444126 0.444129 0.444132 0.444135 0.444138 0.444141 0.444144 0.444147 0.44415 0.444153 0.444156 0.44416 0.444163 0.444166 0.44417 0.444173 0.444177 0.44418 0.444184 0.444188 0.444192 0.444196 0.4442 0.444204 0.444208 0.444212 0.444217 0.444221 0.444226 0.444231 0.444236 0.444241 0.444247 0.444253 0.444259 0.444266 0.444273 0.444281 0.44429 0.4443 0.444311 0.444325 0.444341 0.44436 0.444383 0.444413 0.444449 0.444496 0.444555 0.444631 0.44473 0.444859 0.445027 0.445247 0.445537 0.445917 0.446419 0.44708 0.447953 0.449105 0.450628 0.452639 0.455295 0.458803 0.463432 0.469536 0.477575 0.488145 0.502013 0.520151 0.543771 0.574343 0.613572 0.663295 0.725239 0.800588 0.889341 0.989605 1.09716 1.20574 1.30824 1.39858 1.4731 1.53107 1.57403 1.6047 1.626 1.64055 1.65036 1.65694 1.66135 1.6643 1.66628 1.66762 1.66852 1.66913 1.66955 1.66984 1.67004 1.67019 1.67029 1.67036 1.67041 1.67045 1.67047 1.67049 1.67051 1.67052 1.67053 1.67054 1.67054 1.67055 1.67055 1.67055 1.67055 1.67056 1.67056 1.67056 1.67056 1.67056 1.67056 1.67055 1.67055 1.67055 1.67054 1.67054 1.67053 1.67052 1.67051 1.6705 1.67048 1.67045 1.67041 1.67036 1.67029 1.67019 1.67005 1.66985 1.66956 1.66914 1.66853 1.66764 1.66631 1.66434 1.66141 1.65703 1.65048 1.64073 1.62628 1.60509 1.57459 1.53184 1.47412 1.39985 1.30975 1.20739 1.09886 0.991236 0.890823 0.801874 0.726315 0.664172 0.614273 0.574896 0.544204 0.520489 0.502276 0.48835 0.477735 0.469662 0.463532 0.458884 0.455361 0.452693 0.450673 0.449143 0.447986 0.447109 0.446444 0.445941 0.445558 0.445267 0.445046 0.444877 0.444747 0.444648 0.444571 0.444511 0.444464 0.444427 0.444397 0.444374 0.444354 0.444338 0.444324 0.444312 0.444302 0.444293 0.444285 0.444278 0.444271 0.444264 0.444258 0.444253 0.444247 0.444242 0.444237 0.444232 0.444228 0.444223 0.444219 0.444215 0.44421 0.444207 0.444203 0.444199 0.444195 0.444191 0.444188 0.444184 0.444181 0.444178 0.444174 0.444171 0.444168 0.444165 0.444162 0.444159 0.444156 0.444153 0.44415 0.444147 0.444145 0.444142 0.444139 0.444137 0.444134 0.444131 0.444129 0.444126 0.444124 0.444121 0.444119 0.444117 0.444114 0.444112 0.44411 0.444107 0.444105 0.444103 0.4441 0.444098 0.444096 0.444094 0.444092 0.444089 0.444087 0.444085 0.444083 0.444081 0.444079 0.444077 0.444075 0.444073 0.444071 0.444069 0.444067 0.444065 0.444063 0.444061 0.444059 0.444057 0.444055 0.444053 0.444051 0.44405 0.444048 0.444046 0.444044 0.444043 0.444041 0.444039 0.444038 0.444036 0.444034 0.444033 0.444031 0.44403 0.444028 0.444027 0.444025 0.444024 0.444023 0.444021 0.44402 0.444019 0.444017 0.444016 0.444015 0.444014 0.444012 0.444011 0.44401 0.444009 0.444008 0.444006 0.444005 0.444004 0.444003 0.444002 0.444001 0.444 0.443999 0.443998 0.443997 0.443996 0.443996 0.443995 0.442222 0.442222 0.442223 0.442223 0.442224 0.442225 0.442226 0.442227 0.442228 0.44223 0.442231 0.442232 0.442233 0.442235 0.442236 0.442237 0.442238 0.44224 0.442241 0.442243 0.442244 0.442245 0.442247 0.442248 0.44225 0.442251 0.442253 0.442254 0.442256 0.442258 0.442259 0.442261 0.442263 0.442264 0.442266 0.442268 0.44227 0.442272 0.442273 0.442275 0.442277 0.442279 0.442281 0.442283 0.442285 0.442287 0.442289 0.442291 0.442293 0.442296 0.442298 0.4423 0.442302 0.442304 0.442306 0.442309 0.442311 0.442313 0.442315 0.442318 0.44232 0.442322 0.442325 0.442327 0.442329 0.442332 0.442334 0.442337 0.442339 0.442342 0.442344 0.442346 0.442349 0.442352 0.442354 0.442357 0.442359 0.442362 0.442364 0.442367 0.44237 0.442373 0.442375 0.442378 0.442381 0.442384 0.442387 0.44239 0.442392 0.442395 0.442398 0.442402 0.442405 0.442408 0.442411 0.442414 0.442418 0.442421 0.442425 0.442428 0.442432 0.442436 0.442439 0.442443 0.442447 0.442451 0.442455 0.44246 0.442464 0.442468 0.442473 0.442478 0.442483 0.442488 0.442493 0.442499 0.442505 0.442512 0.442519 0.442526 0.442535 0.442544 0.442555 0.442568 0.442583 0.442602 0.442624 0.442651 0.442685 0.442729 0.442784 0.442855 0.442946 0.443066 0.443221 0.443424 0.443691 0.444041 0.444501 0.445107 0.445905 0.446958 0.448345 0.450174 0.452584 0.455759 0.459938 0.465434 0.472653 0.48212 0.494505 0.510663 0.531659 0.558794 0.593603 0.63779 0.693073 0.760862 0.841755 0.934899 1.03742 1.14431 1.24908 1.34524 1.4279 1.49476 1.54605 1.58378 1.61064 1.62934 1.64217 1.65089 1.6568 1.66079 1.6635 1.66533 1.66659 1.66744 1.66804 1.66845 1.66873 1.66894 1.66908 1.66918 1.66926 1.66931 1.66935 1.66938 1.6694 1.66942 1.66943 1.66944 1.66945 1.66946 1.66946 1.66947 1.66947 1.66947 1.66947 1.66947 1.66947 1.66947 1.66947 1.66947 1.66946 1.66946 1.66945 1.66944 1.66943 1.66942 1.66941 1.66938 1.66935 1.66931 1.66926 1.66919 1.66908 1.66894 1.66874 1.66846 1.66805 1.66746 1.66661 1.66536 1.66354 1.66085 1.65688 1.65101 1.64233 1.62958 1.61098 1.58426 1.54673 1.49566 1.42905 1.34663 1.25064 1.14596 1.03906 0.936429 0.843115 0.762023 0.694036 0.638571 0.594225 0.559286 0.532045 0.510965 0.494741 0.482305 0.472799 0.465549 0.46003 0.455833 0.452644 0.450224 0.448387 0.446993 0.445936 0.445134 0.444525 0.444063 0.443711 0.443443 0.443239 0.443083 0.442963 0.442871 0.442799 0.442743 0.4427 0.442665 0.442637 0.442615 0.442596 0.442581 0.442568 0.442557 0.442547 0.442538 0.44253 0.442523 0.442517 0.44251 0.442505 0.442499 0.442494 0.442489 0.442484 0.442479 0.442475 0.44247 0.442466 0.442462 0.442458 0.442454 0.44245 0.442446 0.442443 0.442439 0.442436 0.442432 0.442429 0.442425 0.442422 0.442419 0.442416 0.442413 0.44241 0.442407 0.442404 0.442401 0.442399 0.442396 0.442393 0.44239 0.442388 0.442385 0.442383 0.44238 0.442378 0.442375 0.442373 0.44237 0.442368 0.442366 0.442363 0.442361 0.442359 0.442357 0.442354 0.442352 0.44235 0.442348 0.442345 0.442343 0.442341 0.442339 0.442337 0.442335 0.442333 0.442331 0.442329 0.442327 0.442325 0.442323 0.442321 0.442319 0.442317 0.442315 0.442313 0.442311 0.442309 0.442308 0.442306 0.442304 0.442302 0.4423 0.442299 0.442297 0.442295 0.442294 0.442292 0.44229 0.442289 0.442287 0.442286 0.442284 0.442283 0.442281 0.44228 0.442278 0.442277 0.442276 0.442274 0.442273 0.442272 0.44227 0.442269 0.442268 0.442267 0.442265 0.442264 0.442263 0.442262 0.442261 0.44226 0.442259 0.442257 0.442256 0.442255 0.442254 0.442253 0.442252 0.442251 0.442251 0.44225 0.442249 0.442249 0.442249 0.440909 0.440909 0.440909 0.44091 0.44091 0.440911 0.440912 0.440913 0.440914 0.440915 0.440916 0.440917 0.440918 0.44092 0.440921 0.440922 0.440923 0.440925 0.440926 0.440927 0.440929 0.44093 0.440931 0