# vtk DataFile Version 3.0
Immiscible displacement
ASCII
DATASET RECTILINEAR_GRID
DIMENSIONS 200 200 1
X_COORDINATES 200 double
1 2 3 4 5 6 7 8 9 10 11 12 13 14 15 16 17 18 19 20 21 22 23 24 25 26 27 28 29 30 31 32 33 34 35 36 37 38 39 40 41 42 43 44 45 46 47 48 49 50 51 52 53 54 55 56 57 58 59 60 61 62 63 64 65 66 67 68 69 70 71 72 73 74 75 76 77 78 79 80 81 82 83 84 85 86 87 88 89 90 91 92 93 94 95 96 97 98 99 100 101 102 103 104 105 106 107 108 109 110 111 112 113 114 115 116 117 118 119 120 121 122 123 124 125 126 127 128 129 130 131 132 133 134 135 136 137 138 139 140 141 142 143 144 145 146 147 148 149 150 151 152 153 154 155 156 157 158 159 160 161 162 163 164 165 166 167 168 169 170 171 172 173 174 175 176 177 178 179 180 181 182 183 184 185 186 187 188 189 190 191 192 193 194 195 196 197 198 199 200 
Y_COORDINATES 200 double
1 2 3 4 5 6 7 8 9 10 11 12 13 14 15 16 17 18 19 20 21 22 23 24 25 26 27 28 29 30 31 32 33 34 35 36 37 38 39 40 41 42 43 44 45 46 47 48 49 50 51 52 53 54 55 56 57 58 59 60 61 62 63 64 65 66 67 68 69 70 71 72 73 74 75 76 77 78 79 80 81 82 83 84 85 86 87 88 89 90 91 92 93 94 95 96 97 98 99 100 101 102 103 104 105 106 107 108 109 110 111 112 113 114 115 116 117 118 119 120 121 122 123 124 125 126 127 128 129 130 131 132 133 134 135 136 137 138 139 140 141 142 143 144 145 146 147 148 149 150 151 152 153 154 155 156 157 158 159 160 161 162 163 164 165 166 167 168 169 170 171 172 173 174 175 176 177 178 179 180 181 182 183 184 185 186 187 188 189 190 191 192 193 194 195 196 197 198 199 200 
Z_COORDINATES 1 double
0
POINT_DATA 40000
SCALARS rho double 1
LOOKUP_TABLE default
0.437918 0.437815 0.437671 0.437516 0.437363 0.437222 0.437095 0.436985 0.436891 0.436815 0.436755 0.436713 0.436687 0.43668 0.436693 0.436731 0.4368 0.436909 0.437071 0.437303 0.437628 0.438083 0.438708 0.439569 0.440744 0.442347 0.444524 0.447479 0.451479 0.456889 0.46419 0.474033 0.487273 0.505045 0.528812 0.560439 0.602186 0.656625 0.726295 0.813024 0.916796 1.03447 1.15908 1.28073 1.3894 1.47822 1.54517 1.59237 1.62404 1.64462 1.65779 1.66621 1.67167 1.67533 1.67788 1.67977 1.68125 1.68249 1.68356 1.68454 1.68545 1.68632 1.68714 1.68794 1.6887 1.68945 1.69018 1.69089 1.69157 1.69223 1.69287 1.6935 1.6941 1.69469 1.69525 1.6958 1.69632 1.69683 1.69731 1.69778 1.69821 1.69864 1.69903 1.69941 1.69976 1.7001 1.70041 1.7007 1.70096 1.70121 1.70143 1.70163 1.7018 1.70195 1.70208 1.70218 1.70226 1.70232 1.70235 1.70236 1.70234 1.70231 1.70224 1.70216 1.70205 1.70192 1.70176 1.70158 1.70137 1.70115 1.7009 1.70063 1.70033 1.70002 1.69968 1.69932 1.69893 1.69853 1.6981 1.69766 1.69718 1.6967 1.69618 1.69566 1.6951 1.69454 1.69394 1.69333 1.6927 1.69205 1.69138 1.69069 1.68998 1.68925 1.6885 1.68773 1.68692 1.68609 1.68522 1.68431 1.68333 1.68225 1.681 1.67951 1.6776 1.67502 1.67132 1.66578 1.65723 1.64388 1.623 1.59091 1.54315 1.47555 1.38608 1.27694 1.1551 1.03064 0.913374 0.810161 0.724019 0.654891 0.600914 0.559542 0.528213 0.50468 0.487092 0.473996 0.464268 0.457059 0.451724 0.447785 0.444881 0.442746 0.441178 0.440032 0.439195 0.438588 0.438148 0.437833 0.437607 0.437448 0.437338 0.437264 0.437217 0.437193 0.437186 0.437195 0.437218 0.437257 0.437309 0.437377 0.437461 0.437563 0.437681 0.437814 0.437959 0.438108 0.438247 0.438346 0.437804 0.437724 0.4376 0.43746 0.437317 0.437184 0.437062 0.436955 0.436864 0.43679 0.43673 0.436688 0.436662 0.436655 0.436667 0.436705 0.436773 0.436882 0.437042 0.437274 0.437597 0.438051 0.438674 0.439533 0.440704 0.442303 0.444472 0.447419 0.451404 0.456796 0.46407 0.473876 0.487064 0.504766 0.528438 0.55994 0.601521 0.655752 0.725171 0.811626 0.915132 1.03261 1.15715 1.2789 1.3878 1.47695 1.54422 1.59171 1.62359 1.64432 1.65758 1.66607 1.67157 1.67525 1.67781 1.67971 1.68119 1.68243 1.6835 1.68448 1.68538 1.68625 1.68707 1.68787 1.68863 1.68938 1.6901 1.69081 1.69149 1.69216 1.69279 1.69342 1.69402 1.69461 1.69517 1.69572 1.69624 1.69675 1.69723 1.69769 1.69813 1.69856 1.69895 1.69933 1.69968 1.70002 1.70032 1.70062 1.70088 1.70113 1.70134 1.70155 1.70171 1.70187 1.70199 1.7021 1.70218 1.70224 1.70227 1.70228 1.70226 1.70223 1.70216 1.70208 1.70196 1.70184 1.70167 1.7015 1.70129 1.70107 1.70081 1.70055 1.70025 1.69994 1.69959 1.69924 1.69885 1.69845 1.69802 1.69757 1.6971 1.69662 1.6961 1.69558 1.69502 1.69446 1.69386 1.69326 1.69262 1.69198 1.6913 1.69062 1.6899 1.68918 1.68842 1.68766 1.68685 1.68603 1.68516 1.68425 1.68327 1.68219 1.68094 1.67945 1.67753 1.67494 1.67122 1.66564 1.65703 1.64358 1.62255 1.59024 1.5422 1.47427 1.38448 1.2751 1.15317 1.02879 0.911721 0.808775 0.722906 0.654028 0.600256 0.55905 0.527845 0.504406 0.486886 0.473842 0.46415 0.456967 0.45165 0.447726 0.44483 0.442702 0.441138 0.439996 0.439161 0.438556 0.438117 0.437803 0.437577 0.43742 0.437309 0.437237 0.437191 0.437168 0.437161 0.437171 0.437193 0.437232 0.437283 0.43735 0.437432 0.43753 0.437643 0.437769 0.437904 0.438039 0.438158 0.438235 0.437636 0.437576 0.437476 0.437357 0.437231 0.43711 0.436998 0.436898 0.436812 0.436741 0.436683 0.436642 0.436616 0.436609 0.436621 0.436658 0.436725 0.436833 0.436991 0.437221 0.437543 0.437994 0.438614 0.439467 0.440631 0.44222 0.444375 0.447302 0.451259 0.45661 0.463828 0.473557 0.486639 0.504195 0.527669 0.558906 0.600142 0.653938 0.722835 0.808715 0.911667 1.02873 1.15312 1.27506 1.38446 1.47428 1.54224 1.59032 1.62265 1.6437 1.65717 1.66579 1.67137 1.6751 1.67769 1.6796 1.68108 1.68232 1.68339 1.68437 1.68527 1.68613 1.68695 1.68774 1.68851 1.68925 1.68997 1.69068 1.69135 1.69202 1.69266 1.69329 1.69388 1.69447 1.69503 1.69558 1.6961 1.69661 1.69708 1.69755 1.69799 1.69841 1.69881 1.69919 1.69954 1.69988 1.70018 1.70048 1.70074 1.70099 1.7012 1.70141 1.70157 1.70173 1.70185 1.70196 1.70204 1.7021 1.70213 1.70214 1.70212 1.70209 1.70202 1.70194 1.70182 1.7017 1.70153 1.70136 1.70115 1.70093 1.70067 1.70041 1.70011 1.6998 1.69945 1.69909 1.6987 1.69831 1.69787 1.69743 1.69696 1.69647 1.69596 1.69543 1.69488 1.69432 1.69372 1.69312 1.69248 1.69184 1.69117 1.69049 1.68977 1.68905 1.6883 1.68753 1.68673 1.68591 1.68505 1.68414 1.68316 1.68208 1.68084 1.67934 1.67741 1.67479 1.67102 1.66536 1.65662 1.64295 1.6216 1.58884 1.5402 1.47158 1.38112 1.27125 1.14914 1.02492 0.908278 0.805888 0.720594 0.652234 0.598895 0.55803 0.527087 0.503844 0.486468 0.473529 0.463913 0.456786 0.451508 0.447611 0.444734 0.44262 0.441066 0.43993 0.4391 0.438498 0.438061 0.437749 0.437525 0.437369 0.43726 0.437189 0.437143 0.437121 0.437115 0.437125 0.437147 0.437185 0.437234 0.437298 0.437376 0.437467 0.437571 0.437684 0.437802 0.437917 0.438012 0.43807 0.437441 0.437396 0.437318 0.43722 0.437113 0.437008 0.436908 0.436818 0.436738 0.436672 0.436617 0.436579 0.436553 0.436547 0.436558 0.436595 0.436661 0.436767 0.436924 0.437152 0.43747 0.437917 0.438531 0.439377 0.44053 0.442103 0.444236 0.447132 0.451045 0.456335 0.463466 0.473076 0.485992 0.503323 0.526491 0.557321 0.598025 0.651149 0.719239 0.804225 0.90631 1.02271 1.14685 1.26906 1.37922 1.47008 1.53912 1.58813 1.62118 1.64273 1.65653 1.66536 1.67107 1.67487 1.6775 1.67944 1.68094 1.68218 1.68325 1.68423 1.68512 1.68598 1.68679 1.68758 1.68834 1.68909 1.6898 1.6905 1.69118 1.69184 1.69248 1.6931 1.6937 1.69429 1.69484 1.69539 1.69591 1.69642 1.6969 1.69736 1.6978 1.69823 1.69862 1.699 1.69935 1.69969 1.69999 1.70029 1.70055 1.7008 1.70101 1.70122 1.70139 1.70154 1.70166 1.70178 1.70185 1.70191 1.70194 1.70195 1.70193 1.7019 1.70183 1.70175 1.70163 1.70151 1.70134 1.70117 1.70096 1.70074 1.70048 1.70022 1.69992 1.69961 1.69926 1.6989 1.69851 1.69812 1.69768 1.69724 1.69677 1.69629 1.69577 1.69525 1.69469 1.69413 1.69354 1.69293 1.6923 1.69166 1.69099 1.69031 1.6896 1.68888 1.68813 1.68737 1.68658 1.68576 1.6849 1.684 1.68302 1.68194 1.68069 1.67918 1.67723 1.67457 1.67071 1.66492 1.65597 1.64197 1.62011 1.58663 1.53705 1.46735 1.37586 1.26524 1.14288 1.01893 0.902955 0.801434 0.717031 0.649474 0.596802 0.556464 0.525925 0.502984 0.485832 0.473056 0.463557 0.456515 0.451297 0.447444 0.444598 0.442505 0.440966 0.439841 0.439017 0.438421 0.437988 0.437679 0.437456 0.437302 0.437194 0.437124 0.43708 0.437058 0.437052 0.437062 0.437083 0.437119 0.437165 0.437225 0.437295 0.437378 0.437469 0.437568 0.437667 0.43776 0.437835 0.437878 0.437233 0.4372 0.437139 0.437061 0.436973 0.436884 0.436797 0.436717 0.436646 0.436586 0.436536 0.4365 0.436477 0.436471 0.436482 0.436519 0.436583 0.436689 0.436843 0.437068 0.437383 0.437825 0.438431 0.439266 0.440404 0.441956 0.444059 0.446911 0.450764 0.455969 0.462984 0.472431 0.485123 0.502149 0.524904 0.555182 0.595165 0.647377 0.714369 0.798132 0.899018 1.01449 1.13823 1.26077 1.37194 1.46422 1.53475 1.58506 1.61911 1.64136 1.65563 1.66476 1.67065 1.67457 1.67726 1.67923 1.68075 1.682 1.68308 1.68405 1.68494 1.6858 1.6866 1.68739 1.68814 1.68888 1.68959 1.69029 1.69097 1.69163 1.69226 1.69289 1.69348 1.69407 1.69462 1.69517 1.69569 1.69619 1.69667 1.69714 1.69757 1.698 1.69839 1.69877 1.69912 1.69946 1.69977 1.70006 1.70032 1.70057 1.70079 1.70099 1.70116 1.70132 1.70144 1.70155 1.70162 1.70168 1.70171 1.70172 1.7017 1.70167 1.7016 1.70152 1.70141 1.70128 1.70112 1.70094 1.70073 1.70051 1.70026 1.69999 1.69969 1.69938 1.69903 1.69868 1.69829 1.69789 1.69746 1.69702 1.69654 1.69606 1.69555 1.69502 1.69447 1.69391 1.69332 1.69272 1.69209 1.69145 1.69078 1.6901 1.6894 1.68868 1.68794 1.68718 1.68639 1.68558 1.68472 1.68382 1.68284 1.68176 1.68051 1.67898 1.67699 1.67426 1.67029 1.66432 1.65506 1.64058 1.61801 1.58352 1.53264 1.46145 1.36855 1.25695 1.13428 1.01074 0.89571 0.79539 0.712207 0.645742 0.593974 0.554351 0.524358 0.501826 0.484976 0.472421 0.463083 0.456156 0.451022 0.447227 0.444423 0.44236 0.440841 0.43973 0.438917 0.438328 0.4379 0.437594 0.437374 0.437222 0.437116 0.437047 0.437003 0.436982 0.436975 0.436985 0.437005 0.437037 0.43708 0.437133 0.437196 0.437268 0.437346 0.437429 0.43751 0.437584 0.437641 0.437673 0.437022 0.436996 0.43695 0.436888 0.436818 0.436744 0.43667 0.436602 0.436539 0.436486 0.436442 0.436409 0.436388 0.436384 0.436396 0.436433 0.436496 0.4366 0.436752 0.436974 0.437284 0.437719 0.438316 0.439137 0.440255 0.44178 0.443844 0.446642 0.450418 0.455518 0.462384 0.471626 0.484038 0.500679 0.522916 0.552502 0.59158 0.642644 0.708247 0.790453 0.889795 1.00404 1.12721 1.2501 1.36249 1.45655 1.52899 1.58099 1.61635 1.63954 1.65444 1.66397 1.67011 1.67418 1.67696 1.67899 1.68053 1.68179 1.68287 1.68384 1.68474 1.68558 1.68639 1.68717 1.68792 1.68865 1.68936 1.69006 1.69072 1.69138 1.69201 1.69264 1.69323 1.69381 1.69437 1.69491 1.69543 1.69593 1.69641 1.69688 1.69731 1.69774 1.69813 1.69851 1.69886 1.6992 1.6995 1.6998 1.70006 1.70031 1.70052 1.70073 1.70089 1.70105 1.70117 1.70128 1.70136 1.70142 1.70144 1.70146 1.70144 1.70141 1.70134 1.70126 1.70114 1.70101 1.70085 1.70068 1.70047 1.70025 1.69999 1.69972 1.69942 1.69911 1.69877 1.69841 1.69802 1.69762 1.69719 1.69675 1.69628 1.6958 1.69529 1.69477 1.69421 1.69365 1.69306 1.69247 1.69184 1.6912 1.69054 1.68987 1.68916 1.68845 1.68771 1.68696 1.68617 1.68537 1.68451 1.68362 1.68264 1.68156 1.68028 1.67873 1.67669 1.67387 1.66975 1.66352 1.65385 1.63874 1.61523 1.57941 1.52682 1.45373 1.35906 1.24626 1.12328 1.00033 0.886547 0.787774 0.706142 0.641057 0.590429 0.551702 0.522394 0.500376 0.483905 0.471628 0.462492 0.455712 0.450682 0.446962 0.444212 0.442186 0.440694 0.439602 0.438802 0.438222 0.4378 0.437499 0.437282 0.437133 0.437028 0.43696 0.436917 0.436895 0.436888 0.436896 0.436914 0.436943 0.43698 0.437027 0.437081 0.437142 0.437207 0.437275 0.437339 0.437397 0.437439 0.437463 0.43681 0.436792 0.436757 0.436709 0.436653 0.436594 0.436533 0.436476 0.436422 0.436377 0.436337 0.43631 0.436291 0.436289 0.436302 0.436339 0.436402 0.436504 0.436653 0.436871 0.437176 0.437602 0.438187 0.438992 0.440087 0.441578 0.443595 0.446327 0.450011 0.454983 0.461671 0.470669 0.482745 0.498929 0.520546 0.549307 0.587305 0.636994 0.700928 0.781246 0.878686 0.991366 1.11375 1.23694 1.35073 1.44692 1.5217 1.57581 1.61283 1.63721 1.65292 1.66296 1.66943 1.67369 1.6766 1.67869 1.68027 1.68155 1.68264 1.68361 1.6845 1.68535 1.68615 1.68692 1.68767 1.6884 1.6891 1.68979 1.69045 1.69111 1.69174 1.69236 1.69295 1.69353 1.69408 1.69462 1.69514 1.69564 1.69612 1.69658 1.69702 1.69744 1.69783 1.69821 1.69856 1.6989 1.6992 1.6995 1.69976 1.70001 1.70022 1.70043 1.70059 1.70075 1.70087 1.70098 1.70106 1.70112 1.70114 1.70116 1.70114 1.70111 1.70104 1.70096 1.70084 1.70071 1.70055 1.70038 1.70017 1.69995 1.69969 1.69943 1.69912 1.69881 1.69847 1.69811 1.69773 1.69733 1.6969 1.69646 1.69599 1.69551 1.695 1.69448 1.69393 1.69337 1.69278 1.69219 1.69156 1.69093 1.69027 1.6896 1.6889 1.6882 1.68746 1.68671 1.68593 1.68513 1.68428 1.68339 1.68241 1.68132 1.68002 1.67843 1.67632 1.67338 1.66906 1.6625 1.65231 1.63638 1.61166 1.57417 1.51947 1.44404 1.34726 1.23309 1.10985 0.987717 0.87551 0.77864 0.69889 0.635464 0.586199 0.548544 0.520053 0.498647 0.482629 0.470684 0.46179 0.455185 0.450281 0.446653 0.443966 0.441987 0.440527 0.439459 0.438674 0.438106 0.437691 0.437396 0.437183 0.437036 0.436932 0.436866 0.436822 0.436801 0.436793 0.436799 0.436813 0.436839 0.43687 0.43691 0.436955 0.437006 0.437058 0.437112 0.437162 0.437205 0.437236 0.437254 0.436603 0.43659 0.436564 0.436528 0.436485 0.436438 0.436389 0.436342 0.436298 0.436259 0.436226 0.436203 0.436188 0.436188 0.436202 0.436239 0.436301 0.436402 0.436548 0.436762 0.437059 0.437476 0.438047 0.438833 0.4399 0.441352 0.443314 0.445969 0.449547 0.454369 0.460853 0.469569 0.481259 0.496917 0.517824 0.545637 0.582392 0.630496 0.692492 0.770598 0.865775 0.976538 1.09786 1.22124 1.33653 1.43516 1.51271 1.56936 1.60842 1.63429 1.651 1.6617 1.66858 1.6731 1.67616 1.67833 1.67997 1.68128 1.68238 1.68335 1.68424 1.68509 1.68588 1.68665 1.68739 1.68812 1.68881 1.6895 1.69016 1.69081 1.69143 1.69205 1.69264 1.69322 1.69377 1.69431 1.69482 1.69532 1.69579 1.69626 1.69669 1.69711 1.6975 1.69788 1.69823 1.69857 1.69887 1.69917 1.69943 1.69968 1.69989 1.70009 1.70026 1.70042 1.70054 1.70065 1.70072 1.70079 1.70081 1.70083 1.70081 1.70077 1.7007 1.70062 1.70051 1.70038 1.70022 1.70004 1.69983 1.69961 1.69936 1.69909 1.69879 1.69848 1.69814 1.69779 1.6974 1.697 1.69657 1.69613 1.69566 1.69519 1.69468 1.69416 1.69361 1.69306 1.69247 1.69188 1.69126 1.69063 1.68997 1.68931 1.68862 1.68791 1.68719 1.68644 1.68567 1.68487 1.68402 1.68313 1.68215 1.68104 1.67972 1.67807 1.67587 1.67278 1.6682 1.66122 1.65037 1.63342 1.6072 1.56766 1.5104 1.43221 1.33301 1.21738 1.09399 0.972956 0.862683 0.768077 0.69053 0.629029 0.581337 0.544914 0.517362 0.496659 0.481162 0.469599 0.460984 0.454581 0.449824 0.4463 0.443689 0.441764 0.440342 0.439301 0.438535 0.43798 0.437575 0.437286 0.437077 0.436933 0.436831 0.436766 0.436723 0.436701 0.436691 0.436695 0.436706 0.436727 0.436753 0.436786 0.436822 0.436862 0.436903 0.436944 0.436981 0.437013 0.437035 0.437047 0.436401 0.436392 0.436374 0.436348 0.436316 0.43628 0.436242 0.436205 0.436168 0.436137 0.43611 0.436091 0.436079 0.436082 0.436097 0.436135 0.436197 0.436295 0.436439 0.436647 0.436937 0.437343 0.437898 0.438661 0.439696 0.441103 0.443003 0.445572 0.449029 0.453685 0.459939 0.46834 0.479598 0.494669 0.514785 0.54154 0.576906 0.623233 0.683045 0.758631 0.851183 0.959648 1.07957 1.20295 1.31978 1.42111 1.50184 1.56149 1.603 1.63068 1.64863 1.66014 1.66754 1.67237 1.67562 1.67792 1.67962 1.68096 1.68208 1.68307 1.68396 1.6848 1.68559 1.68636 1.68709 1.68781 1.6885 1.68918 1.68984 1.69048 1.6911 1.69172 1.6923 1.69288 1.69342 1.69396 1.69447 1.69497 1.69544 1.6959 1.69634 1.69676 1.69715 1.69753 1.69787 1.69821 1.69851 1.69881 1.69906 1.69931 1.69953 1.69973 1.6999 1.70005 1.70017 1.70028 1.70036 1.70042 1.70045 1.70046 1.70044 1.70041 1.70034 1.70026 1.70014 1.70002 1.69985 1.69968 1.69947 1.69925 1.699 1.69873 1.69843 1.69812 1.69778 1.69743 1.69704 1.69664 1.69622 1.69578 1.69531 1.69484 1.69433 1.69381 1.69327 1.69272 1.69213 1.69155 1.69093 1.6903 1.68965 1.68899 1.68831 1.68761 1.68689 1.68615 1.68538 1.68458 1.68374 1.68285 1.68185 1.68073 1.67937 1.67766 1.67534 1.67205 1.66714 1.65964 1.64796 1.62976 1.60172 1.55971 1.49944 1.41807 1.31621 1.19909 1.07575 0.956146 0.848187 0.756205 0.681168 0.621836 0.575908 0.54086 0.514356 0.494437 0.479521 0.468385 0.460081 0.453906 0.449313 0.445908 0.443383 0.441519 0.440141 0.439131 0.438387 0.437847 0.437453 0.437171 0.436968 0.436826 0.436727 0.436662 0.436619 0.436596 0.436585 0.436586 0.436594 0.43661 0.43663 0.436656 0.436684 0.436715 0.436745 0.436776 0.436802 0.436824 0.436838 0.436846 0.436206 0.436201 0.436189 0.436172 0.436149 0.436123 0.436094 0.436065 0.436037 0.436012 0.43599 0.435976 0.435968 0.435973 0.43599 0.436028 0.436089 0.436186 0.436325 0.436528 0.436809 0.437202 0.43774 0.438478 0.439477 0.440835 0.442666 0.445139 0.448463 0.452937 0.458939 0.466995 0.477783 0.492216 0.511469 0.537073 0.570925 0.615306 0.672711 0.745491 0.835066 0.940834 1.05897 1.18208 1.30037 1.4046 1.48888 1.552 1.59641 1.62625 1.64571 1.65822 1.66626 1.6715 1.67499 1.67743 1.67922 1.68061 1.68176 1.68276 1.68365 1.68449 1.68528 1.68604 1.68677 1.68748 1.68817 1.68884 1.68949 1.69013 1.69075 1.69136 1.69194 1.69251 1.69305 1.69359 1.6941 1.69459 1.69506 1.69552 1.69595 1.69637 1.69676 1.69714 1.69748 1.69782 1.69812 1.69841 1.69867 1.69892 1.69913 1.69933 1.6995 1.69966 1.69978 1.69989 1.69996 1.70002 1.70005 1.70006 1.70004 1.70001 1.69994 1.69986 1.69975 1.69962 1.69946 1.69928 1.69908 1.69886 1.6986 1.69834 1.69804 1.69773 1.69739 1.69704 1.69665 1.69626 1.69583 1.6954 1.69493 1.69446 1.69395 1.69344 1.6929 1.69235 1.69177 1.69119 1.69057 1.68995 1.68931 1.68865 1.68797 1.68728 1.68656 1.68583 1.68507 1.68427 1.68343 1.68253 1.68153 1.68038 1.67897 1.67717 1.6747 1.67116 1.66585 1.6577 1.64501 1.62528 1.59504 1.55012 1.48637 1.40146 1.29675 1.17822 1.0552 0.937424 0.832177 0.743169 0.670925 0.613984 0.569986 0.53644 0.511076 0.492011 0.477727 0.467057 0.459094 0.453167 0.448755 0.445481 0.443051 0.441255 0.439925 0.438949 0.438231 0.437708 0.437326 0.437052 0.436854 0.436717 0.436619 0.436555 0.436512 0.436489 0.436476 0.436474 0.436479 0.43649 0.436505 0.436524 0.436544 0.436567 0.436588 0.436609 0.436626 0.436639 0.436648 0.436652 0.436019 0.436017 0.436011 0.436 0.435985 0.435968 0.435947 0.435926 0.435905 0.435886 0.43587 0.43586 0.435855 0.435862 0.435881 0.435919 0.435979 0.436074 0.436209 0.436405 0.436677 0.437057 0.437575 0.438285 0.439246 0.440549 0.442306 0.444675 0.447856 0.452133 0.457867 0.465554 0.475839 0.48959 0.507924 0.532299 0.56453 0.606824 0.66163 0.731346 0.817608 0.92027 1.03619 1.15865 1.27824 1.38543 1.47361 1.54067 1.58846 1.62087 1.64215 1.65588 1.6647 1.67043 1.67423 1.67686 1.67876 1.68022 1.68139 1.68241 1.68332 1.68416 1.68494 1.6857 1.68642 1.68713 1.68781 1.68848 1.68912 1.68976 1.69037 1.69097 1.69155 1.69212 1.69266 1.69319 1.69369 1.69419 1.69466 1.69511 1.69554 1.69596 1.69634 1.69672 1.69706 1.6974 1.6977 1.69799 1.69825 1.69849 1.69871 1.69891 1.69907 1.69923 1.69935 1.69946 1.69953 1.69959 1.69962 1.69963 1.69961 1.69958 1.69951 1.69943 1.69932 1.69919 1.69903 1.69886 1.69865 1.69843 1.69818 1.69792 1.69762 1.69731 1.69697 1.69662 1.69624 1.69584 1.69542 1.69499 1.69453 1.69405 1.69355 1.69304 1.6925 1.69196 1.69138 1.6908 1.69019 1.68958 1.68894 1.68829 1.68761 1.68693 1.68622 1.68549 1.68473 1.68394 1.6831 1.68219 1.68117 1.67998 1.67851 1.67659 1.67394 1.67008 1.66427 1.65533 1.6414 1.61983 1.587 1.53867 1.47098 1.3822 1.27456 1.1548 1.03249 0.916965 0.814835 0.729136 0.659941 0.605581 0.563654 0.531713 0.507568 0.489414 0.475805 0.465632 0.458035 0.452374 0.448157 0.445024 0.442695 0.440973 0.439697 0.438759 0.438067 0.437564 0.437195 0.436931 0.436739 0.436605 0.43651 0.436447 0.436404 0.43638 0.436365 0.436361 0.436362 0.436369 0.436378 0.436392 0.436405 0.43642 0.436433 0.436445 0.436454 0.436461 0.436464 0.436465 0.435841 0.435842 0.43584 0.435835 0.435827 0.435816 0.435803 0.435789 0.435774 0.435761 0.435749 0.435743 0.435742 0.435752 0.435771 0.43581 0.435869 0.435961 0.436092 0.436281 0.436542 0.436907 0.437404 0.438084 0.439003 0.440249 0.441926 0.444185 0.447215 0.451284 0.456734 0.464033 0.473791 0.486826 0.504196 0.527281 0.557811 0.597904 0.649952 0.716379 0.799017 0.898166 1.01139 1.13275 1.25333 1.36347 1.4558 1.52726 1.57892 1.61437 1.63782 1.65303 1.66281 1.66915 1.67333 1.67619 1.67823 1.67977 1.68099 1.68204 1.68295 1.6838 1.68458 1.68533 1.68605 1.68675 1.68743 1.68809 1.68873 1.68936 1.68997 1.69057 1.69114 1.6917 1.69224 1.69277 1.69327 1.69376 1.69422 1.69468 1.6951 1.69552 1.6959 1.69627 1.69662 1.69695 1.69725 1.69754 1.69779 1.69804 1.69825 1.69845 1.69862 1.69877 1.69889 1.699 1.69907 1.69913 1.69916 1.69918 1.69916 1.69912 1.69905 1.69898 1.69886 1.69873 1.69857 1.6984 1.6982 1.69798 1.69773 1.69746 1.69717 1.69686 1.69652 1.69617 1.69579 1.6954 1.69498 1.69455 1.69409 1.69362 1.69312 1.69262 1.69208 1.69154 1.69097 1.69039 1.68979 1.68918 1.68855 1.6879 1.68723 1.68655 1.68585 1.68513 1.68437 1.68358 1.68273 1.68181 1.68076 1.67953 1.67797 1.67591 1.67302 1.66878 1.66236 1.65243 1.63701 1.61324 1.57735 1.52513 1.45304 1.36013 1.2496 1.12892 1.00777 0.894977 0.79637 0.714286 0.648363 0.596743 0.556999 0.526745 0.503878 0.486679 0.473779 0.464129 0.456915 0.451536 0.447524 0.444541 0.442321 0.440677 0.439458 0.438561 0.437898 0.437415 0.437061 0.436807 0.436622 0.436493 0.436401 0.436339 0.436296 0.436271 0.436254 0.436248 0.436245 0.436248 0.436253 0.43626 0.436267 0.436275 0.436281 0.436286 0.436289 0.43629 0.436289 0.436287 0.435673 0.435675 0.435677 0.435677 0.435675 0.43567 0.435663 0.435655 0.435645 0.435638 0.435631 0.435628 0.43563 0.435641 0.435662 0.435701 0.435759 0.435848 0.435974 0.436156 0.436406 0.436754 0.437228 0.437877 0.438752 0.439938 0.44153 0.443674 0.446547 0.4504 0.455555 0.462452 0.471664 0.48396 0.500334 0.522087 0.550857 0.588663 0.637829 0.700782 0.779519 0.874763 0.984782 1.10451 1.22564 1.33856 1.43521 1.51147 1.56754 1.60652 1.63256 1.64955 1.66051 1.6676 1.67225 1.6754 1.67761 1.67926 1.68055 1.68163 1.68256 1.68341 1.68419 1.68495 1.68566 1.68636 1.68703 1.68768 1.68832 1.68894 1.68954 1.69013 1.6907 1.69126 1.69179 1.69232 1.69281 1.6933 1.69376 1.69421 1.69463 1.69505 1.69543 1.6958 1.69614 1.69647 1.69677 1.69706 1.69731 1.69756 1.69777 1.69797 1.69813 1.69828 1.6984 1.69851 1.69858 1.69865 1.69867 1.69869 1.69867 1.69863 1.69857 1.69849 1.69837 1.69825 1.69809 1.69792 1.69771 1.69749 1.69724 1.69698 1.69669 1.69638 1.69605 1.6957 1.69532 1.69493 1.69452 1.69409 1.69363 1.69316 1.69267 1.69217 1.69164 1.6911 1.69054 1.68996 1.68937 1.68876 1.68813 1.68749 1.68683 1.68616 1.68546 1.68474 1.68398 1.68319 1.68234 1.6814 1.68032 1.67902 1.67735 1.67512 1.67193 1.66721 1.66002 1.64891 1.63168 1.60529 1.56584 1.5092 1.43231 1.33513 1.22188 1.10072 0.981259 0.871701 0.777006 0.698812 0.636345 0.587586 0.550109 0.521602 0.500054 0.483842 0.471675 0.462565 0.45575 0.450662 0.446864 0.444037 0.441931 0.44037 0.43921 0.438356 0.437725 0.437264 0.436926 0.436683 0.436505 0.436381 0.436291 0.436231 0.436188 0.436162 0.436144 0.436135 0.436129 0.436129 0.436129 0.436131 0.436133 0.436135 0.436135 0.436134 0.436131 0.436127 0.436122 0.436118 0.435514 0.435518 0.435523 0.435527 0.435529 0.43553 0.435528 0.435525 0.435521 0.435518 0.435514 0.435515 0.43552 0.435533 0.435555 0.435593 0.43565 0.435736 0.435856 0.43603 0.436268 0.4366 0.43705 0.437666 0.438495 0.439617 0.441123 0.443148 0.445859 0.44949 0.454343 0.46083 0.469485 0.481027 0.496386 0.516782 0.543754 0.579221 0.625418 0.684752 0.759352 0.850324 0.956632 1.07411 1.19525 1.31062 1.41161 1.49303 1.55402 1.59709 1.62619 1.64532 1.6577 1.66571 1.67095 1.67446 1.6769 1.67868 1.68005 1.68118 1.68213 1.683 1.68378 1.68454 1.68525 1.68594 1.6866 1.68725 1.68788 1.6885 1.68909 1.68968 1.69024 1.69079 1.69132 1.69184 1.69233 1.69282 1.69328 1.69372 1.69414 1.69455 1.69493 1.6953 1.69564 1.69597 1.69626 1.69655 1.6968 1.69704 1.69725 1.69745 1.69762 1.69777 1.69789 1.69799 1.69807 1.69813 1.69815 1.69817 1.69815 1.69812 1.69805 1.69797 1.69786 1.69773 1.69757 1.6974 1.6972 1.69698 1.69673 1.69647 1.69618 1.69588 1.69554 1.6952 1.69482 1.69444 1.69402 1.6936 1.69315 1.69268 1.69219 1.69169 1.69117 1.69063 1.69008 1.68951 1.68892 1.68832 1.6877 1.68706 1.68641 1.68574 1.68504 1.68433 1.68357 1.68278 1.68191 1.68095 1.67982 1.67844 1.67664 1.67417 1.67061 1.6653 1.65717 1.64461 1.62523 1.59575 1.55218 1.49059 1.40856 1.30709 1.19146 1.07038 0.95322 0.847402 0.75698 0.682908 0.624039 0.578228 0.543073 0.516347 0.496145 0.480939 0.469518 0.46096 0.454552 0.449763 0.446184 0.443518 0.441529 0.440054 0.438957 0.438148 0.437549 0.437112 0.43679 0.436558 0.436389 0.43627 0.436183 0.436125 0.436082 0.436055 0.436036 0.436025 0.436016 0.436012 0.436008 0.436006 0.436002 0.435999 0.435994 0.435988 0.43598 0.435972 0.435964 0.435959 0.435364 0.43537 0.435377 0.435385 0.435392 0.435397 0.435399 0.435401 0.435401 0.435401 0.435402 0.435406 0.435412 0.435427 0.43545 0.435488 0.435542 0.435625 0.43574 0.435905 0.436131 0.436445 0.436871 0.437452 0.438234 0.439292 0.440709 0.442613 0.445158 0.448565 0.453112 0.459184 0.467277 0.478061 0.492398 0.511427 0.536589 0.56969 0.612867 0.668484 0.738761 0.825135 0.927229 1.04181 1.16227 1.2796 1.38479 1.47161 1.53805 1.58578 1.61847 1.64015 1.65427 1.66342 1.66938 1.67335 1.67607 1.67802 1.6795 1.68068 1.68167 1.68255 1.68335 1.6841 1.68481 1.6855 1.68615 1.6868 1.68742 1.68803 1.68862 1.6892 1.68976 1.69031 1.69083 1.69134 1.69183 1.69231 1.69276 1.69321 1.69362 1.69403 1.69441 1.69477 1.69511 1.69543 1.69573 1.69601 1.69626 1.6965 1.69671 1.69691 1.69707 1.69722 1.69734 1.69745 1.69752 1.69758 1.69761 1.69762 1.6976 1.69757 1.6975 1.69742 1.69731 1.69719 1.69703 1.69686 1.69666 1.69644 1.6962 1.69594 1.69565 1.69535 1.69501 1.69467 1.6943 1.69392 1.69351 1.69308 1.69263 1.69218 1.69169 1.6912 1.69068 1.69015 1.68959 1.68903 1.68845 1.68785 1.68724 1.68661 1.68596 1.6853 1.68461 1.68389 1.68314 1.68234 1.68145 1.68045 1.67926 1.67777 1.6758 1.67304 1.66902 1.66297 1.6537 1.63938 1.61741 1.58431 1.53604 1.469 1.3816 1.27598 1.15847 1.03815 0.923944 0.822361 0.736534 0.666768 0.611594 0.568781 0.535972 0.511042 0.492195 0.478001 0.467333 0.459332 0.453334 0.448848 0.445492 0.442989 0.44112 0.439732 0.438699 0.437937 0.437372 0.436959 0.436654 0.436434 0.436274 0.43616 0.436077 0.43602 0.435978 0.435951 0.43593 0.435917 0.435906 0.435898 0.435891 0.435885 0.435877 0.435869 0.43586 0.435849 0.435838 0.435826 0.435816 0.435809 0.435225 0.435231 0.435241 0.435252 0.435261 0.43527 0.435276 0.435282 0.435286 0.43529 0.435293 0.4353 0.435308 0.435324 0.435348 0.435385 0.435438 0.435516 0.435626 0.435782 0.435995 0.436291 0.436691 0.437237 0.437972 0.438964 0.440291 0.442073 0.444452 0.447633 0.451875 0.457533 0.465066 0.475093 0.488413 0.506083 0.529439 0.560176 0.600319 0.652165 0.717984 0.799488 0.896898 1.0079 1.1269 1.24553 1.3546 1.44693 1.51925 1.57226 1.60913 1.63386 1.65007 1.66061 1.66747 1.67201 1.67508 1.67726 1.67887 1.68013 1.68117 1.68208 1.68289 1.68364 1.68435 1.68503 1.68569 1.68633 1.68694 1.68755 1.68813 1.6887 1.68925 1.6898 1.69031 1.69082 1.69131 1.69178 1.69223 1.69267 1.69308 1.69348 1.69386 1.69422 1.69455 1.69488 1.69517 1.69545 1.6957 1.69594 1.69615 1.69634 1.6965 1.69665 1.69677 1.69688 1.69695 1.69701 1.69703 1.69705 1.69703 1.697 1.69693 1.69685 1.69674 1.69662 1.69646 1.69629 1.69609 1.69588 1.69563 1.69538 1.69509 1.69479 1.69446 1.69412 1.69375 1.69337 1.69296 1.69255 1.6921 1.69165 1.69117 1.69068 1.69016 1.68964 1.68909 1.68853 1.68796 1.68737 1.68676 1.68614 1.68549 1.68484 1.68415 1.68344 1.68267 1.68186 1.68095 1.6799 1.67863 1.677 1.6748 1.67169 1.66708 1.66013 1.64944 1.633 1.60794 1.57062 1.51706 1.44413 1.35126 1.24183 1.12313 1.00434 0.893755 0.796872 0.715907 0.650579 0.599151 0.55935 0.528887 0.505746 0.488248 0.475062 0.465143 0.457697 0.45211 0.447927 0.444795 0.442456 0.440708 0.439409 0.438441 0.437725 0.437195 0.436806 0.43652 0.436313 0.43616 0.436053 0.435973 0.435918 0.435877 0.43585 0.435828 0.435813 0.4358 0.435789 0.435779 0.435769 0.435757 0.435746 0.435732 0.435719 0.435704 0.435689 0.435677 0.435669 0.435095 0.435103 0.435114 0.435127 0.435139 0.435151 0.435161 0.43517 0.435176 0.435183 0.435189 0.435198 0.435209 0.435226 0.435249 0.435285 0.435336 0.435411 0.435514 0.435661 0.435861 0.436138 0.436513 0.437024 0.43771 0.438636 0.439874 0.441534 0.443748 0.446705 0.450643 0.455891 0.462871 0.472152 0.484471 0.5008 0.522377 0.550777 0.587906 0.635973 0.697256 0.773678 0.865985 0.972745 1.08944 1.20853 1.32093 1.41869 1.49725 1.55612 1.59782 1.62617 1.64492 1.65716 1.66514 1.67039 1.67391 1.67637 1.67815 1.67952 1.68062 1.68156 1.68239 1.68316 1.68387 1.68455 1.6852 1.68583 1.68644 1.68704 1.68762 1.68818 1.68873 1.68926 1.68978 1.69028 1.69076 1.69123 1.69167 1.69211 1.69252 1.69291 1.69328 1.69364 1.69397 1.69429 1.69458 1.69486 1.69511 1.69535 1.69555 1.69574 1.69591 1.69606 1.69617 1.69628 1.69635 1.69641 1.69643 1.69645 1.69643 1.69639 1.69633 1.69625 1.69614 1.69602 1.69586 1.6957 1.6955 1.69528 1.69504 1.69479 1.6945 1.69421 1.69388 1.69354 1.69318 1.6928 1.6924 1.69198 1.69154 1.69109 1.69062 1.69013 1.68962 1.68911 1.68857 1.68802 1.68744 1.68686 1.68626 1.68565 1.68501 1.68435 1.68367 1.68295 1.68218 1.68135 1.6804 1.67929 1.67791 1.67611 1.67362 1.67004 1.66472 1.65663 1.64421 1.6252 1.59649 1.55431 1.49486 1.41571 1.31745 1.20478 1.08571 0.969297 0.862999 0.771226 0.69533 0.634514 0.586842 0.550032 0.521887 0.500512 0.484342 0.47215 0.46297 0.456073 0.450892 0.44701 0.444099 0.441924 0.440296 0.439086 0.438183 0.437515 0.437019 0.436656 0.436388 0.436193 0.43605 0.435948 0.435873 0.43582 0.43578 0.435752 0.43573 0.435713 0.435698 0.435685 0.435672 0.435659 0.435644 0.435629 0.435613 0.435596 0.435578 0.435562 0.435548 0.435539 0.434975 0.434983 0.434996 0.435011 0.435026 0.43504 0.435052 0.435064 0.435073 0.435083 0.435091 0.435102 